       N       E                     dE             d eps       ncg     rms          ort
DAV:   1     0.973146451483E+04    0.97315E+04   -0.32005E+05  3216   0.181E+03
DAV:   2     0.107728064795E+04   -0.86542E+04   -0.82360E+04  3216   0.560E+02
DAV:   3    -0.478592902337E+03   -0.15559E+04   -0.14371E+04  3216   0.231E+02
DAV:   4    -0.689693479123E+03   -0.21110E+03   -0.20247E+03  3216   0.956E+01
DAV:   5    -0.701661364819E+03   -0.11968E+02   -0.11554E+02  3216   0.277E+01
SDA:   6    -0.184302684414E+03    0.51736E+03   -0.11554E+02  3216   0.320E+04 0.000E+00
CGA:   7    -0.507727018835E+03   -0.32342E+03   -0.37350E+03  3216   0.230E+03 0.416E+02
CGA:   8    -0.541750818100E+03   -0.34024E+02   -0.34347E+02  3216   0.672E+02 0.179E+01
CGA:   9    -0.552042678897E+03   -0.10292E+02   -0.10087E+02  3216   0.674E+02-0.268E+01
CGA:  10    -0.560811931413E+03   -0.87693E+01   -0.92456E+01  3216   0.366E+02 0.114E+01
CGA:  11    -0.565202872657E+03   -0.43909E+01   -0.37688E+01  3216   0.182E+02-0.179E+01
CGA:  12    -0.567649820285E+03   -0.24469E+01   -0.24271E+01  3216   0.945E+01 0.942E-01
CGA:  13    -0.568718059713E+03   -0.10682E+01   -0.11401E+01  3216   0.686E+01-0.140E+00
CGA:  14    -0.569260779382E+03   -0.54272E+00   -0.57936E+00  3216   0.216E+01 0.373E-02
CGA:  15    -0.569557602876E+03   -0.29682E+00   -0.27541E+00  3216   0.225E+01-0.280E-01
CGA:  16    -0.569763614249E+03   -0.20601E+00   -0.22020E+00  3216   0.137E+01-0.253E-01
CGA:  17    -0.569906793618E+03   -0.14318E+00   -0.14907E+00  3216   0.825E+00 0.124E-01
CGA:  18    -0.570027835808E+03   -0.12104E+00   -0.12188E+00  3216   0.470E+00 0.155E-01
CGA:  19    -0.570097601824E+03   -0.69766E-01   -0.70175E-01  3216   0.283E+00 0.825E-02
CGA:  20    -0.570146830127E+03   -0.49228E-01   -0.49263E-01  3216   0.202E+00-0.310E-02
CGA:  21    -0.570182080085E+03   -0.35250E-01   -0.35206E-01  3216   0.115E+00 0.162E-02
CGA:  22    -0.570200879238E+03   -0.18799E-01   -0.18806E-01  3216   0.719E-01 0.129E-02
CGA:  23    -0.570214405849E+03   -0.13527E-01   -0.13558E-01  3216   0.405E-01-0.994E-03
CGA:  24    -0.570222623614E+03   -0.82178E-02   -0.82543E-02  3216   0.391E-01-0.634E-03
CGA:  25    -0.570228600199E+03   -0.59766E-02   -0.59799E-02  3216   0.191E-01 0.130E-03
CGA:  26    -0.570232579080E+03   -0.39789E-02   -0.39823E-02  3216   0.161E-01-0.593E-04
CGA:  27    -0.570235036172E+03   -0.24571E-02   -0.24527E-02  3216   0.893E-02-0.122E-03
CGA:  28    -0.570236778766E+03   -0.17426E-02   -0.17426E-02  3216   0.607E-02-0.761E-05
CGA:  29    -0.570237760999E+03   -0.98223E-03   -0.98220E-03  3216   0.345E-02-0.571E-05
CGA:  30    -0.570238339400E+03   -0.57840E-03   -0.57834E-03  3216   0.217E-02-0.181E-04
CGA:  31    -0.570238743939E+03   -0.40454E-03   -0.40456E-03  3216   0.118E-02-0.316E-05
CGA:  32    -0.570238942702E+03   -0.19876E-03   -0.19876E-03  3216   0.805E-03-0.560E-05
CGA:  33    -0.570239099055E+03   -0.15635E-03   -0.15673E-03  3216   0.424E-03-0.137E-04
CGA:  34    -0.570239185986E+03   -0.86931E-04   -0.87087E-04  3216   0.380E-03-0.397E-05
CGA:  35    -0.570239250917E+03   -0.64932E-04   -0.64936E-04  3216   0.182E-03 0.312E-05
CGA:  36    -0.570239291305E+03   -0.40387E-04   -0.40066E-04  3216   0.179E-03 0.704E-05
SDA:  37    -0.570239321449E+03   -0.30144E-04   -0.30236E-04  3216   0.785E-04 0.733E-05
CGA:  38    -0.570239341897E+03   -0.20448E-04   -0.20397E-04  3216   0.710E-04 0.579E-06
CGA:  39    -0.570239355236E+03   -0.13339E-04   -0.13333E-04  3216   0.327E-04 0.854E-06
CGA:  40    -0.570239362372E+03   -0.71359E-05   -0.70606E-05  3216   0.142E-04 0.225E-05
   1 F= -.57023936E+03 E0= -.57023346E+03  d E =-.570239E+03  mag=    70.0000
