       N       E                     dE             d eps       ncg     rms          ort
DAV:   1     0.147836290057E+05    0.14784E+05   -0.58478E+05  1320   0.173E+03
DAV:   2     0.124246997379E+04   -0.13541E+05   -0.13023E+05  1320   0.526E+02
DAV:   3    -0.131925531907E+04   -0.25617E+04   -0.24810E+04  1320   0.208E+02
DAV:   4    -0.148725717162E+04   -0.16800E+03   -0.16359E+03  1320   0.604E+01
DAV:   5    -0.149573406419E+04   -0.84769E+01   -0.79426E+01  1320   0.121E+01
SDA:   6     0.877731664229E+02    0.15835E+04   -0.79426E+01  1320   0.988E+04 0.000E+00
CGA:   7    -0.893218664227E+03   -0.98099E+03   -0.11680E+04  1320   0.130E+04 0.450E+03
CGA:   8    -0.952671195467E+03   -0.59453E+02   -0.77254E+02  1320   0.126E+04-0.171E+03
CGA:   9    -0.100376499428E+04   -0.51094E+02   -0.67481E+02  1320   0.114E+04-0.123E+03
CGA:  10    -0.104009923639E+04   -0.36334E+02   -0.55834E+02  1320   0.849E+03-0.419E+03
CGA:  11    -0.107233944167E+04   -0.32240E+02   -0.19417E+02  1320   0.303E+03 0.245E+03
CGA:  12    -0.107440450485E+04   -0.20651E+01   -0.23536E+02  1320   0.841E+03-0.121E+03
CGA:  13    -0.108021948537E+04   -0.58150E+01   -0.11498E+02  1320   0.816E+03-0.112E+03
CGA:  14    -0.108337419391E+04   -0.31547E+01   -0.19723E+02  1320   0.109E+04-0.340E+03
CGA:  15    -0.108691948290E+04   -0.35453E+01   -0.10291E+02  1320   0.331E+03-0.605E+03
CGA:  16    -0.110052856657E+04   -0.13609E+02   -0.15211E+02  1320   0.399E+03-0.168E+03
CGA:  17    -0.110260532246E+04   -0.20768E+01   -0.15747E+02  1320   0.448E+03-0.220E+03
CGA:  18    -0.111010905777E+04   -0.75037E+01   -0.11672E+02  1320   0.178E+03-0.218E+03
CGA:  19    -0.111660907759E+04   -0.65000E+01   -0.50070E+01  1320   0.354E+02 0.162E+02
CGA:  20    -0.111888644428E+04   -0.22774E+01   -0.25073E+01  1320   0.522E+02-0.144E+01
CGA:  21    -0.112159175393E+04   -0.27053E+01   -0.29948E+01  1320   0.720E+02-0.573E+01
CGA:  22    -0.112370322343E+04   -0.21115E+01   -0.20815E+01  1320   0.137E+02-0.785E-01
CGA:  23    -0.112422127487E+04   -0.51805E+00   -0.56823E+00  1320   0.104E+02-0.965E+00
CGA:  24    -0.112505157744E+04   -0.83030E+00   -0.83973E+00  1320   0.490E+01 0.117E+00
CGA:  25    -0.112550591397E+04   -0.45434E+00   -0.45554E+00  1320   0.308E+01 0.335E-01
CGA:  26    -0.112597619674E+04   -0.47028E+00   -0.45428E+00  1320   0.600E+01 0.309E+00
CGA:  27    -0.112624556121E+04   -0.26936E+00   -0.26509E+00  1320   0.198E+01 0.217E+00
CGA:  28    -0.112637636490E+04   -0.13080E+00   -0.13238E+00  1320   0.229E+01-0.771E-02
CGA:  29    -0.112656213505E+04   -0.18577E+00   -0.18960E+00  1320   0.141E+01 0.414E-01
CGA:  30    -0.112668347870E+04   -0.12134E+00   -0.12295E+00  1320   0.820E+00 0.262E-01
CGA:  31    -0.112674971687E+04   -0.66238E-01   -0.66767E-01  1320   0.632E+00 0.481E-02
CGA:  32    -0.112680157652E+04   -0.51860E-01   -0.52444E-01  1320   0.590E+00 0.939E-02
CGA:  33    -0.112685216134E+04   -0.50585E-01   -0.51102E-01  1320   0.338E+00 0.112E-01
CGA:  34    -0.112688899068E+04   -0.36829E-01   -0.36801E-01  1320   0.212E+00 0.209E-02
CGA:  35    -0.112691742056E+04   -0.28430E-01   -0.28204E-01  1320   0.253E+00 0.499E-02
CGA:  36    -0.112694377781E+04   -0.26357E-01   -0.26356E-01  1320   0.241E+00-0.449E-02
CGA:  37    -0.112696529634E+04   -0.21519E-01   -0.21592E-01  1320   0.218E+00 0.213E-02
CGA:  38    -0.112698945641E+04   -0.24160E-01   -0.24276E-01  1320   0.150E+00-0.806E-02
CGA:  39    -0.112700898636E+04   -0.19530E-01   -0.19670E-01  1320   0.895E-01-0.347E-02
CGA:  40    -0.112701974158E+04   -0.10755E-01   -0.10757E-01  1320   0.793E-01-0.429E-04
CGA:  41    -0.112703032966E+04   -0.10588E-01   -0.10483E-01  1320   0.612E-01 0.272E-02
CGA:  42    -0.112703643123E+04   -0.61016E-02   -0.61116E-02  1320   0.395E-01 0.664E-03
CGA:  43    -0.112704062988E+04   -0.41986E-02   -0.41983E-02  1320   0.459E-01-0.333E-03
CGA:  44    -0.112704495729E+04   -0.43274E-02   -0.43293E-02  1320   0.314E-01 0.281E-03
CGA:  45    -0.112704970082E+04   -0.47435E-02   -0.47717E-02  1320   0.248E-01-0.492E-03
CGA:  46    -0.112705204280E+04   -0.23420E-02   -0.23410E-02  1320   0.156E-01 0.460E-04
CGA:  47    -0.112705342993E+04   -0.13871E-02   -0.13822E-02  1320   0.145E-01-0.402E-04
SDA:  48    -0.112705487295E+04   -0.14430E-02   -0.14365E-02  1320   0.169E-01-0.428E-03
CGA:  49    -0.112705583634E+04   -0.96339E-03   -0.96631E-03  1320   0.999E-02-0.392E-04
CGA:  50    -0.112705705771E+04   -0.12214E-02   -0.12243E-02  1320   0.142E-01-0.116E-03
CGA:  51    -0.112705865405E+04   -0.15963E-02   -0.16010E-02  1320   0.160E-01-0.309E-03
CGA:  52    -0.112706035230E+04   -0.16982E-02   -0.16995E-02  1320   0.778E-02-0.198E-03
CGA:  53    -0.112706128339E+04   -0.93109E-03   -0.93255E-03  1320   0.430E-02-0.617E-04
CGA:  54    -0.112706162821E+04   -0.34482E-03   -0.34363E-03  1320   0.212E-02-0.273E-05
CGA:  55    -0.112706186183E+04   -0.23362E-03   -0.23367E-03  1320   0.214E-02 0.542E-06
CGA:  56    -0.112706201593E+04   -0.15410E-03   -0.15464E-03  1320   0.149E-02 0.161E-04
CGA:  57    -0.112706212960E+04   -0.11367E-03   -0.11403E-03  1320   0.784E-03 0.222E-04
CGA:  58    -0.112706223681E+04   -0.10721E-03   -0.10578E-03  1320   0.679E-03 0.448E-04
CGA:  59    -0.112706231993E+04   -0.83126E-04   -0.82545E-04  1320   0.644E-03 0.481E-04
CGA:  60    -0.112706239278E+04   -0.72850E-04   -0.72773E-04  1320   0.505E-03 0.449E-04
CGA:  61    -0.112706245783E+04   -0.65046E-04   -0.64517E-04  1320   0.664E-03 0.336E-04
CGA:  62    -0.112706250594E+04   -0.48111E-04   -0.48603E-04  1320   0.405E-03 0.169E-04
CGA:  63    -0.112706254285E+04   -0.36910E-04   -0.36923E-04  1320   0.277E-03 0.950E-06
CGA:  64    -0.112706257778E+04   -0.34932E-04   -0.35213E-04  1320   0.294E-03-0.118E-04
CGA:  65    -0.112706260856E+04   -0.30777E-04   -0.30871E-04  1320   0.171E-03-0.151E-04
CGA:  66    -0.112706262372E+04   -0.15164E-04   -0.15104E-04  1320   0.193E-03-0.587E-05
CGA:  67    -0.112706264044E+04   -0.16717E-04   -0.16689E-04  1320   0.190E-03-0.274E-05
CGA:  68    -0.112706265891E+04   -0.18470E-04   -0.18476E-04  1320   0.120E-03 0.116E-05
CGA:  69    -0.112706266948E+04   -0.10568E-04   -0.10630E-04  1320   0.784E-04 0.407E-05
CGA:  70    -0.112706268238E+04   -0.12903E-04   -0.12360E-04  1320   0.105E-03 0.104E-04
CGA:  71    -0.112706269501E+04   -0.12633E-04   -0.12614E-04  1320   0.898E-04 0.122E-04
CGA:  72    -0.112706270327E+04   -0.82541E-05   -0.84344E-05  1320   0.754E-04 0.885E-05
   1 F= -.11270627E+04 E0= -.11270365E+04  d E =-.112706E+04  mag=    19.9998
       N       E                     dE             d eps       ncg     rms          ort
SDA:   1    -0.112707426349E+04   -0.11568E-01    0.00000E+00  1320   0.425E-01 0.000E+00
CGA:   2    -0.112707591318E+04   -0.16497E-02   -0.16607E-02  1320   0.148E-01-0.222E-03
CGA:   3    -0.112707723822E+04   -0.13250E-02   -0.13246E-02  1320   0.977E-02-0.400E-04
CGA:   4    -0.112707803542E+04   -0.79720E-03   -0.79687E-03  1320   0.470E-02-0.227E-04
CGA:   5    -0.112707860171E+04   -0.56629E-03   -0.56663E-03  1320   0.300E-02-0.140E-04
CGA:   6    -0.112707880401E+04   -0.20230E-03   -0.20226E-03  1320   0.111E-02-0.392E-05
CGA:   7    -0.112707886119E+04   -0.57180E-04   -0.57082E-04  1320   0.446E-03-0.805E-06
CGA:   8    -0.112707889982E+04   -0.38626E-04   -0.38608E-04  1320   0.273E-03-0.209E-05
CGA:   9    -0.112707891974E+04   -0.19923E-04   -0.19868E-04  1320   0.897E-04-0.256E-05
CGA:  10    -0.112707892847E+04   -0.87286E-05   -0.87409E-05  1320   0.564E-04-0.236E-05
   2 F= -.11270789E+04 E0= -.11270527E+04  d E =-.162252E-01  mag=    19.9998
       N       E                     dE             d eps       ncg     rms          ort
SDA:   1    -0.111900418367E+04    0.80747E+01    0.00000E+00  1320   0.321E+02 0.000E+00
CGA:   2    -0.112378284525E+04   -0.47787E+01   -0.47952E+01  1320   0.172E+02-0.254E+00
CGA:   3    -0.112527396577E+04   -0.14911E+01   -0.14911E+01  1320   0.166E+02 0.764E-02
CGA:   4    -0.112676377077E+04   -0.14898E+01   -0.14925E+01  1320   0.100E+02 0.242E+00
CGA:   5    -0.112728513812E+04   -0.52137E+00   -0.50451E+00  1320   0.175E+01 0.207E+00
CGA:   6    -0.112748934489E+04   -0.20421E+00   -0.20453E+00  1320   0.120E+01-0.103E-01
CGA:   7    -0.112757397972E+04   -0.84635E-01   -0.84853E-01  1320   0.473E+00 0.207E-02
CGA:   8    -0.112760440933E+04   -0.30430E-01   -0.30425E-01  1320   0.210E+00 0.742E-06
CGA:   9    -0.112762085570E+04   -0.16446E-01   -0.16441E-01  1320   0.135E+00-0.203E-03
CGA:  10    -0.112763227013E+04   -0.11414E-01   -0.11418E-01  1320   0.604E-01 0.257E-03
CGA:  11    -0.112763749704E+04   -0.52269E-02   -0.52250E-02  1320   0.354E-01-0.243E-03
CGA:  12    -0.112764111555E+04   -0.36185E-02   -0.36167E-02  1320   0.371E-01 0.876E-04
CGA:  13    -0.112764356945E+04   -0.24539E-02   -0.24564E-02  1320   0.159E-01 0.212E-04
CGA:  14    -0.112764528531E+04   -0.17159E-02   -0.17158E-02  1320   0.986E-02 0.888E-05
CGA:  15    -0.112764641583E+04   -0.11305E-02   -0.11299E-02  1320   0.110E-01 0.245E-04
CGA:  16    -0.112764722232E+04   -0.80649E-03   -0.80722E-03  1320   0.644E-02 0.270E-04
CGA:  17    -0.112764774591E+04   -0.52359E-03   -0.52387E-03  1320   0.380E-02 0.284E-04
CGA:  18    -0.112764819504E+04   -0.44913E-03   -0.44818E-03  1320   0.277E-02 0.336E-04
CGA:  19    -0.112764841570E+04   -0.22065E-03   -0.22081E-03  1320   0.178E-02 0.131E-04
CGA:  20    -0.112764855377E+04   -0.13807E-03   -0.13811E-03  1320   0.123E-02 0.271E-05
CGA:  21    -0.112764867314E+04   -0.11937E-03   -0.11939E-03  1320   0.787E-03-0.265E-05
CGA:  22    -0.112764875092E+04   -0.77777E-04   -0.77828E-04  1320   0.616E-03-0.597E-05
CGA:  23    -0.112764881344E+04   -0.62520E-04   -0.62573E-04  1320   0.629E-03-0.446E-05
CGA:  24    -0.112764886010E+04   -0.46655E-04   -0.46627E-04  1320   0.357E-03-0.171E-05
CGA:  25    -0.112764889587E+04   -0.35779E-04   -0.35758E-04  1320   0.237E-03 0.215E-05
CGA:  26    -0.112764892094E+04   -0.25068E-04   -0.25023E-04  1320   0.223E-03 0.315E-05
CGA:  27    -0.112764893883E+04   -0.17890E-04   -0.17909E-04  1320   0.113E-03 0.157E-05
CGA:  28    -0.112764894845E+04   -0.96189E-05   -0.96084E-05  1320   0.103E-03-0.153E-05
   3 F= -.11276489E+04 E0= -.11276246E+04  d E =-.570020E+00  mag=    19.9997
       N       E                     dE             d eps       ncg     rms          ort
SDA:   1    -0.110847518831E+04    0.19174E+02    0.00000E+00  1320   0.667E+02 0.000E+00
CGA:   2    -0.111884787540E+04   -0.10373E+02   -0.10335E+02  1320   0.516E+02 0.517E+00
CGA:   3    -0.112247047562E+04   -0.36226E+01   -0.33986E+01  1320   0.339E+02-0.503E+00
CGA:   4    -0.112574073769E+04   -0.32703E+01   -0.32704E+01  1320   0.233E+02-0.303E-01
CGA:   5    -0.112725229830E+04   -0.15116E+01   -0.15264E+01  1320   0.508E+01 0.709E-01
CGA:   6    -0.112766386601E+04   -0.41157E+00   -0.40967E+00  1320   0.271E+01-0.584E-01
CGA:   7    -0.112793402931E+04   -0.27016E+00   -0.26973E+00  1320   0.995E+00 0.270E-01
CGA:   8    -0.112800844386E+04   -0.74415E-01   -0.74486E-01  1320   0.402E+00 0.118E-02
CGA:   9    -0.112803660234E+04   -0.28158E-01   -0.28215E-01  1320   0.316E+00 0.803E-03
CGA:  10    -0.112806386719E+04   -0.27265E-01   -0.27274E-01  1320   0.152E+00 0.120E-02
CGA:  11    -0.112807614840E+04   -0.12281E-01   -0.12282E-01  1320   0.745E-01 0.228E-04
CGA:  12    -0.112808511843E+04   -0.89700E-02   -0.89635E-02  1320   0.584E-01 0.154E-03
CGA:  13    -0.112809107828E+04   -0.59598E-02   -0.59561E-02  1320   0.352E-01 0.198E-03
CGA:  14    -0.112809370853E+04   -0.26303E-02   -0.26318E-02  1320   0.282E-01 0.357E-04
CGA:  15    -0.112809614777E+04   -0.24392E-02   -0.24396E-02  1320   0.196E-01 0.626E-04
CGA:  16    -0.112809863476E+04   -0.24870E-02   -0.24841E-02  1320   0.105E-01 0.690E-04
CGA:  17    -0.112809966023E+04   -0.10255E-02   -0.10252E-02  1320   0.786E-02 0.422E-04
CGA:  18    -0.112810046172E+04   -0.80148E-03   -0.80148E-03  1320   0.613E-02 0.475E-05
CGA:  19    -0.112810092437E+04   -0.46265E-03   -0.46275E-03  1320   0.362E-02 0.509E-05
CGA:  20    -0.112810119799E+04   -0.27362E-03   -0.27373E-03  1320   0.212E-02 0.274E-05
CGA:  21    -0.112810147813E+04   -0.28013E-03   -0.28022E-03  1320   0.147E-02-0.145E-05
CGA:  22    -0.112810167160E+04   -0.19347E-03   -0.19378E-03  1320   0.123E-02-0.764E-05
CGA:  23    -0.112810176540E+04   -0.93803E-04   -0.93708E-04  1320   0.111E-02-0.355E-05
CGA:  24    -0.112810186631E+04   -0.10091E-03   -0.10089E-03  1320   0.564E-03-0.536E-05
CGA:  25    -0.112810193136E+04   -0.65043E-04   -0.65079E-04  1320   0.455E-03-0.164E-05
CGA:  26    -0.112810197633E+04   -0.44979E-04   -0.44983E-04  1320   0.285E-03-0.770E-06
CGA:  27    -0.112810200362E+04   -0.27290E-04   -0.27290E-04  1320   0.206E-03-0.472E-06
CGA:  28    -0.112810201971E+04   -0.16086E-04   -0.16050E-04  1320   0.159E-03-0.206E-05
CGA:  29    -0.112810203420E+04   -0.14493E-04   -0.14486E-04  1320   0.961E-04-0.294E-05
CGA:  30    -0.112810204512E+04   -0.10919E-04   -0.10960E-04  1320   0.517E-04-0.186E-05
CGA:  31    -0.112810205139E+04   -0.62710E-05   -0.62466E-05  1320   0.677E-04 0.876E-06
   4 F= -.11281021E+04 E0= -.11280785E+04  d E =-.453103E+00  mag=    19.9996
       N       E                     dE             d eps       ncg     rms          ort
SDA:   1    -0.111480333456E+04    0.13299E+02    0.00000E+00  1320   0.493E+02 0.000E+00
CGA:   2    -0.112164707612E+04   -0.68437E+01   -0.68708E+01  1320   0.400E+02-0.485E+00
CGA:   3    -0.112455294851E+04   -0.29059E+01   -0.28899E+01  1320   0.198E+02-0.125E+00
CGA:   4    -0.112670531652E+04   -0.21524E+01   -0.21489E+01  1320   0.175E+02 0.150E+00
CGA:   5    -0.112769553415E+04   -0.99022E+00   -0.98912E+00  1320   0.425E+01 0.739E-01
CGA:   6    -0.112801117923E+04   -0.31565E+00   -0.31706E+00  1320   0.179E+01 0.132E-01
CGA:   7    -0.112819666796E+04   -0.18549E+00   -0.18575E+00  1320   0.101E+01-0.161E-01
CGA:   8    -0.112826115883E+04   -0.64491E-01   -0.64905E-01  1320   0.314E+00 0.740E-03
CGA:   9    -0.112828321222E+04   -0.22053E-01   -0.22022E-01  1320   0.191E+00-0.136E-03
CGA:  10    -0.112830215118E+04   -0.18939E-01   -0.18945E-01  1320   0.116E+00-0.455E-03
CGA:  11    -0.112831140948E+04   -0.92583E-02   -0.92674E-02  1320   0.535E-01 0.255E-03
CGA:  12    -0.112831694002E+04   -0.55305E-02   -0.55312E-02  1320   0.423E-01-0.362E-04
CGA:  13    -0.112832069250E+04   -0.37525E-02   -0.37524E-02  1320   0.355E-01-0.763E-05
CGA:  14    -0.112832339998E+04   -0.27075E-02   -0.27084E-02  1320   0.143E-01 0.185E-04
CGA:  15    -0.112832511508E+04   -0.17151E-02   -0.17155E-02  1320   0.135E-01-0.673E-05
CGA:  16    -0.112832670360E+04   -0.15885E-02   -0.15874E-02  1320   0.116E-01 0.395E-04
CGA:  17    -0.112832743176E+04   -0.72817E-03   -0.72871E-03  1320   0.523E-02 0.106E-04
CGA:  18    -0.112832803462E+04   -0.60286E-03   -0.60274E-03  1320   0.436E-02 0.585E-05
CGA:  19    -0.112832845207E+04   -0.41744E-03   -0.41744E-03  1320   0.248E-02 0.387E-05
CGA:  20    -0.112832866279E+04   -0.21072E-03   -0.21070E-03  1320   0.159E-02-0.353E-05
CGA:  21    -0.112832880266E+04   -0.13987E-03   -0.13985E-03  1320   0.144E-02-0.447E-05
CGA:  22    -0.112832895559E+04   -0.15293E-03   -0.15298E-03  1320   0.766E-03-0.345E-05
CGA:  23    -0.112832904403E+04   -0.88435E-04   -0.88461E-04  1320   0.680E-03-0.117E-05
CGA:  24    -0.112832909876E+04   -0.54735E-04   -0.54714E-04  1320   0.528E-03-0.143E-05
CGA:  25    -0.112832915246E+04   -0.53694E-04   -0.53714E-04  1320   0.317E-03-0.249E-05
CGA:  26    -0.112832918070E+04   -0.28244E-04   -0.28222E-04  1320   0.237E-03-0.421E-05
CGA:  27    -0.112832920524E+04   -0.24536E-04   -0.24586E-04  1320   0.148E-03-0.460E-05
CGA:  28    -0.112832921868E+04   -0.13445E-04   -0.13442E-04  1320   0.131E-03-0.169E-05
CGA:  29    -0.112832922890E+04   -0.10217E-04   -0.10219E-04  1320   0.626E-04 0.561E-07
CGA:  30    -0.112832923691E+04   -0.80116E-05   -0.79731E-05  1320   0.574E-04 0.112E-05
   5 F= -.11283292E+04 E0= -.11283053E+04  d E =-.227186E+00  mag=    19.9996
       N       E                     dE             d eps       ncg     rms          ort
SDA:   1    -0.110910121447E+04    0.19228E+02    0.00000E+00  1320   0.735E+02 0.000E+00
CGA:   2    -0.111940550892E+04   -0.10304E+02   -0.10327E+02  1320   0.477E+02-0.284E+00
CGA:   3    -0.112313450139E+04   -0.37290E+01   -0.37773E+01  1320   0.277E+02 0.561E+00
CGA:   4    -0.112671620257E+04   -0.35817E+01   -0.36131E+01  1320   0.151E+02-0.738E+00
CGA:   5    -0.112768659132E+04   -0.97039E+00   -0.97105E+00  1320   0.460E+01 0.295E-02
CGA:   6    -0.112804307800E+04   -0.35649E+00   -0.35397E+00  1320   0.261E+01-0.262E-01
CGA:   7    -0.112825731708E+04   -0.21424E+00   -0.21341E+00  1320   0.133E+01-0.196E-01
CGA:   8    -0.112834283473E+04   -0.85518E-01   -0.86783E-01  1320   0.337E+00 0.281E-02
CGA:   9    -0.112838146475E+04   -0.38630E-01   -0.38681E-01  1320   0.202E+00-0.164E-02
CGA:  10    -0.112840226175E+04   -0.20797E-01   -0.20789E-01  1320   0.116E+00 0.549E-03
CGA:  11    -0.112841301688E+04   -0.10755E-01   -0.10753E-01  1320   0.790E-01-0.403E-03
CGA:  12    -0.112841906089E+04   -0.60440E-02   -0.60428E-02  1320   0.564E-01-0.154E-04
CGA:  13    -0.112842567134E+04   -0.66105E-02   -0.66046E-02  1320   0.286E-01 0.175E-03
CGA:  14    -0.112842851753E+04   -0.28462E-02   -0.28463E-02  1320   0.237E-01-0.458E-05
CGA:  15    -0.112843118949E+04   -0.26720E-02   -0.26706E-02  1320   0.164E-01 0.602E-04
CGA:  16    -0.112843319350E+04   -0.20040E-02   -0.20028E-02  1320   0.109E-01 0.430E-04
CGA:  17    -0.112843405040E+04   -0.85690E-03   -0.85732E-03  1320   0.746E-02 0.153E-04
CGA:  18    -0.112843478079E+04   -0.73039E-03   -0.73037E-03  1320   0.499E-02 0.142E-04
CGA:  19    -0.112843523620E+04   -0.45541E-03   -0.45543E-03  1320   0.279E-02 0.327E-05
CGA:  20    -0.112843556786E+04   -0.33166E-03   -0.33185E-03  1320   0.175E-02-0.854E-05
CGA:  21    -0.112843580594E+04   -0.23808E-03   -0.23841E-03  1320   0.157E-02-0.831E-05
CGA:  22    -0.112843593008E+04   -0.12414E-03   -0.12409E-03  1320   0.123E-02-0.299E-05
CGA:  23    -0.112843605988E+04   -0.12979E-03   -0.12982E-03  1320   0.657E-03-0.303E-05
CGA:  24    -0.112843612793E+04   -0.68055E-04   -0.68067E-04  1320   0.564E-03-0.221E-05
CGA:  25    -0.112843619069E+04   -0.62755E-04   -0.62815E-04  1320   0.335E-03-0.474E-05
CGA:  26    -0.112843622456E+04   -0.33878E-04   -0.33887E-04  1320   0.224E-03-0.312E-05
CGA:  27    -0.112843624592E+04   -0.21351E-04   -0.21345E-04  1320   0.166E-03-0.187E-05
CGA:  28    -0.112843626064E+04   -0.14725E-04   -0.14718E-04  1320   0.129E-03-0.706E-06
CGA:  29    -0.112843627388E+04   -0.13244E-04   -0.13244E-04  1320   0.664E-04-0.221E-06
CGA:  30    -0.112843628189E+04   -0.80069E-05   -0.79904E-05  1320   0.620E-04 0.751E-06
   6 F= -.11284363E+04 E0= -.11284131E+04  d E =-.107045E+00  mag=    19.9990
       N       E                     dE             d eps       ncg     rms          ort
SDA:   1    -0.111228270051E+04    0.16154E+02    0.00000E+00  1320   0.650E+02 0.000E+00
CGA:   2    -0.112137022581E+04   -0.90875E+01   -0.91133E+01  1320   0.379E+02-0.470E+00
CGA:   3    -0.112397944817E+04   -0.26092E+01   -0.27253E+01  1320   0.244E+02 0.286E+00
CGA:   4    -0.112696493178E+04   -0.29855E+01   -0.30057E+01  1320   0.156E+02-0.703E+00
CGA:   5    -0.112782408069E+04   -0.85915E+00   -0.86916E+00  1320   0.385E+01-0.131E-01
CGA:   6    -0.112817463059E+04   -0.35055E+00   -0.35153E+00  1320   0.237E+01 0.427E-01
CGA:   7    -0.112837299483E+04   -0.19836E+00   -0.19800E+00  1320   0.793E+00-0.498E-02
CGA:   8    -0.112844792609E+04   -0.74931E-01   -0.74997E-01  1320   0.258E+00 0.633E-02
CGA:   9    -0.112847209556E+04   -0.24169E-01   -0.24155E-01  1320   0.215E+00-0.974E-03
CGA:  10    -0.112848909777E+04   -0.17002E-01   -0.17021E-01  1320   0.893E-01 0.258E-03
CGA:  11    -0.112849769083E+04   -0.85931E-02   -0.85936E-02  1320   0.618E-01 0.143E-03
CGA:  12    -0.112850425960E+04   -0.65688E-02   -0.65690E-02  1320   0.425E-01-0.126E-04
CGA:  13    -0.112850862867E+04   -0.43691E-02   -0.43676E-02  1320   0.241E-01 0.176E-03
CGA:  14    -0.112851122923E+04   -0.26006E-02   -0.26003E-02  1320   0.172E-01 0.243E-04
CGA:  15    -0.112851326828E+04   -0.20391E-02   -0.20380E-02  1320   0.163E-01 0.458E-04
CGA:  16    -0.112851465073E+04   -0.13824E-02   -0.13827E-02  1320   0.962E-02 0.209E-04
CGA:  17    -0.112851553018E+04   -0.87945E-03   -0.87957E-03  1320   0.527E-02 0.141E-04
CGA:  18    -0.112851614982E+04   -0.61964E-03   -0.61940E-03  1320   0.376E-02 0.127E-04
CGA:  19    -0.112851654064E+04   -0.39082E-03   -0.39079E-03  1320   0.219E-02 0.798E-05
CGA:  20    -0.112851675855E+04   -0.21790E-03   -0.21791E-03  1320   0.163E-02 0.294E-05
CGA:  21    -0.112851694209E+04   -0.18354E-03   -0.18357E-03  1320   0.134E-02-0.165E-05
CGA:  22    -0.112851706790E+04   -0.12581E-03   -0.12580E-03  1320   0.978E-03-0.195E-05
CGA:  23    -0.112851716120E+04   -0.93304E-04   -0.93290E-04  1320   0.617E-03-0.338E-05
CGA:  24    -0.112851723916E+04   -0.77955E-04   -0.78049E-04  1320   0.439E-03-0.353E-05
CGA:  25    -0.112851728654E+04   -0.47380E-04   -0.47394E-04  1320   0.288E-03-0.201E-05
CGA:  26    -0.112851731671E+04   -0.30166E-04   -0.30170E-04  1320   0.218E-03-0.112E-05
CGA:  27    -0.112851733525E+04   -0.18544E-04   -0.18520E-04  1320   0.132E-03-0.153E-05
CGA:  28    -0.112851735103E+04   -0.15778E-04   -0.15806E-04  1320   0.116E-03-0.145E-05
CGA:  29    -0.112851736112E+04   -0.10089E-04   -0.10082E-04  1320   0.654E-04-0.530E-06
CGA:  30    -0.112851736933E+04   -0.82173E-05   -0.82073E-05  1320   0.518E-04 0.349E-06
   7 F= -.11285174E+04 E0= -.11284945E+04  d E =-.810874E-01  mag=    19.9978
       N       E                     dE             d eps       ncg     rms          ort
SDA:   1    -0.112559748405E+04    0.29199E+01    0.00000E+00  1320   0.106E+02 0.000E+00
CGA:   2    -0.112732032145E+04   -0.17228E+01   -0.17223E+01  1320   0.472E+01 0.107E-01
CGA:   3    -0.112797672982E+04   -0.65641E+00   -0.65912E+00  1320   0.636E+01-0.612E-01
CGA:   4    -0.112838758294E+04   -0.41085E+00   -0.41448E+00  1320   0.171E+01-0.640E-02
CGA:   5    -0.112851223636E+04   -0.12465E+00   -0.12473E+00  1320   0.561E+00 0.422E-03
CGA:   6    -0.112857123617E+04   -0.59000E-01   -0.59002E-01  1320   0.360E+00-0.250E-02
CGA:   7    -0.112859487085E+04   -0.23635E-01   -0.23675E-01  1320   0.965E-01-0.753E-05
CGA:   8    -0.112860567290E+04   -0.10802E-01   -0.10800E-01  1320   0.397E-01 0.167E-03
CGA:   9    -0.112861043700E+04   -0.47641E-02   -0.47632E-02  1320   0.257E-01 0.548E-04
CGA:  10    -0.112861267037E+04   -0.22334E-02   -0.22327E-02  1320   0.192E-01-0.594E-05
CGA:  11    -0.112861428186E+04   -0.16115E-02   -0.16116E-02  1320   0.108E-01 0.531E-05
CGA:  12    -0.112861551993E+04   -0.12381E-02   -0.12380E-02  1320   0.607E-02 0.476E-05
CGA:  13    -0.112861626893E+04   -0.74900E-03   -0.74923E-03  1320   0.358E-02-0.110E-04
CGA:  14    -0.112861679181E+04   -0.52288E-03   -0.52338E-03  1320   0.314E-02-0.125E-04
CGA:  15    -0.112861708894E+04   -0.29712E-03   -0.29698E-03  1320   0.236E-02-0.121E-04
CGA:  16    -0.112861726775E+04   -0.17881E-03   -0.17853E-03  1320   0.114E-02-0.924E-05
CGA:  17    -0.112861740328E+04   -0.13553E-03   -0.13562E-03  1320   0.824E-03-0.586E-05
CGA:  18    -0.112861748406E+04   -0.80779E-04   -0.80761E-04  1320   0.377E-03-0.257E-05
CGA:  19    -0.112861753826E+04   -0.54205E-04   -0.54187E-04  1320   0.331E-03 0.455E-06
CGA:  20    -0.112861756874E+04   -0.30478E-04   -0.30480E-04  1320   0.286E-03 0.645E-07
CGA:  21    -0.112861759511E+04   -0.26363E-04   -0.26368E-04  1320   0.173E-03 0.343E-06
CGA:  22    -0.112861761639E+04   -0.21285E-04   -0.21279E-04  1320   0.124E-03 0.313E-06
CGA:  23    -0.112861762987E+04   -0.13477E-04   -0.13477E-04  1320   0.918E-04-0.168E-06
CGA:  24    -0.112861763872E+04   -0.88533E-05   -0.88528E-05  1320   0.639E-04-0.208E-07
   8 F= -.11286176E+04 E0= -.11285952E+04  d E =-.100269E+00  mag=    19.9978
       N       E                     dE             d eps       ncg     rms          ort
SDA:   1    -0.112614760349E+04    0.24700E+01    0.00000E+00  1320   0.860E+01 0.000E+00
CGA:   2    -0.112761595547E+04   -0.14684E+01   -0.14727E+01  1320   0.628E+01-0.597E-01
CGA:   3    -0.112800545915E+04   -0.38950E+00   -0.40344E+00  1320   0.378E+01-0.433E-01
CGA:   4    -0.112846320693E+04   -0.45775E+00   -0.45781E+00  1320   0.148E+01-0.259E-02
CGA:   5    -0.112855917824E+04   -0.95971E-01   -0.94764E-01  1320   0.589E+00 0.551E-02
CGA:   6    -0.112861871467E+04   -0.59536E-01   -0.59562E-01  1320   0.329E+00 0.258E-02
CGA:   7    -0.112864661101E+04   -0.27896E-01   -0.27889E-01  1320   0.818E-01-0.371E-04
CGA:   8    -0.112865383298E+04   -0.72220E-02   -0.72208E-02  1320   0.491E-01-0.186E-04
CGA:   9    -0.112865808055E+04   -0.42476E-02   -0.42480E-02  1320   0.284E-01 0.831E-05
CGA:  10    -0.112866041388E+04   -0.23333E-02   -0.23339E-02  1320   0.124E-01 0.107E-04
CGA:  11    -0.112866181989E+04   -0.14060E-02   -0.14056E-02  1320   0.106E-01 0.192E-04
CGA:  12    -0.112866309346E+04   -0.12736E-02   -0.12736E-02  1320   0.564E-02 0.266E-05
CGA:  13    -0.112866359515E+04   -0.50169E-03   -0.50180E-03  1320   0.473E-02 0.195E-05
CGA:  14    -0.112866417038E+04   -0.57523E-03   -0.57530E-03  1320   0.379E-02-0.272E-05
CGA:  15    -0.112866453317E+04   -0.36279E-03   -0.36278E-03  1320   0.243E-02-0.138E-05
CGA:  16    -0.112866476288E+04   -0.22971E-03   -0.22973E-03  1320   0.158E-02 0.116E-05
CGA:  17    -0.112866494656E+04   -0.18367E-03   -0.18368E-03  1320   0.960E-03 0.219E-07
CGA:  18    -0.112866503829E+04   -0.91732E-04   -0.91752E-04  1320   0.547E-03 0.221E-05
CGA:  19    -0.112866509362E+04   -0.55335E-04   -0.55338E-04  1320   0.438E-03 0.152E-05
CGA:  20    -0.112866513510E+04   -0.41477E-04   -0.41486E-04  1320   0.304E-03 0.104E-05
CGA:  21    -0.112866516737E+04   -0.32272E-04   -0.32274E-04  1320   0.154E-03-0.503E-06
CGA:  22    -0.112866518922E+04   -0.21846E-04   -0.21857E-04  1320   0.161E-03-0.312E-06
CGA:  23    -0.112866520267E+04   -0.13455E-04   -0.13454E-04  1320   0.896E-04-0.586E-07
CGA:  24    -0.112866521261E+04   -0.99357E-05   -0.99315E-05  1320   0.599E-04 0.503E-06
   9 F= -.11286652E+04 E0= -.11286435E+04  d E =-.475739E-01  mag=    19.9975
       N       E                     dE             d eps       ncg     rms          ort
SDA:   1    -0.111299881730E+04    0.15666E+02    0.00000E+00  1320   0.511E+02 0.000E+00
CGA:   2    -0.112256091246E+04   -0.95621E+01   -0.96135E+01  1320   0.366E+02-0.562E+00
CGA:   3    -0.112502830667E+04   -0.24674E+01   -0.25929E+01  1320   0.213E+02-0.883E-01
CGA:   4    -0.112761547318E+04   -0.25872E+01   -0.25899E+01  1320   0.583E+01-0.117E+00
CGA:   5    -0.112810265457E+04   -0.48718E+00   -0.48683E+00  1320   0.370E+01-0.558E-02
CGA:   6    -0.112841989212E+04   -0.31724E+00   -0.31807E+00  1320   0.190E+01 0.144E-01
CGA:   7    -0.112855241034E+04   -0.13252E+00   -0.13101E+00  1320   0.462E+00 0.357E-02
CGA:   8    -0.112859905447E+04   -0.46644E-01   -0.46642E-01  1320   0.273E+00-0.454E-03
CGA:   9    -0.112862519899E+04   -0.26145E-01   -0.26135E-01  1320   0.138E+00-0.644E-03
CGA:  10    -0.112863813739E+04   -0.12938E-01   -0.12947E-01  1320   0.843E-01 0.442E-03
CGA:  11    -0.112864802827E+04   -0.98909E-02   -0.98901E-02  1320   0.680E-01 0.452E-04
CGA:  12    -0.112865441449E+04   -0.63862E-02   -0.63886E-02  1320   0.489E-01 0.138E-03
CGA:  13    -0.112865867293E+04   -0.42584E-02   -0.42598E-02  1320   0.274E-01 0.479E-04
CGA:  14    -0.112866300971E+04   -0.43368E-02   -0.43390E-02  1320   0.248E-01-0.273E-04
CGA:  15    -0.112866554319E+04   -0.25335E-02   -0.25337E-02  1320   0.151E-01 0.385E-04
CGA:  16    -0.112866703958E+04   -0.14964E-02   -0.14964E-02  1320   0.111E-01 0.266E-05
CGA:  17    -0.112866817471E+04   -0.11351E-02   -0.11351E-02  1320   0.683E-02 0.228E-05
CGA:  18    -0.112866878464E+04   -0.60993E-03   -0.61017E-03  1320   0.408E-02 0.873E-05
CGA:  19    -0.112866918435E+04   -0.39972E-03   -0.39971E-03  1320   0.282E-02-0.708E-06
CGA:  20    -0.112866959397E+04   -0.40962E-03   -0.40966E-03  1320   0.178E-02-0.105E-05
CGA:  21    -0.112866977297E+04   -0.17899E-03   -0.17897E-03  1320   0.135E-02-0.324E-05
CGA:  22    -0.112866992121E+04   -0.14824E-03   -0.14824E-03  1320   0.120E-02-0.119E-05
CGA:  23    -0.112867003337E+04   -0.11216E-03   -0.11215E-03  1320   0.582E-03-0.840E-06
CGA:  24    -0.112867009135E+04   -0.57989E-04   -0.57991E-04  1320   0.420E-03 0.691E-06
CGA:  25    -0.112867013968E+04   -0.48331E-04   -0.48336E-04  1320   0.271E-03-0.411E-06
CGA:  26    -0.112867016669E+04   -0.27003E-04   -0.27001E-04  1320   0.148E-03-0.480E-06
CGA:  27    -0.112867018297E+04   -0.16287E-04   -0.16293E-04  1320   0.122E-03-0.110E-05
CGA:  28    -0.112867019459E+04   -0.11616E-04   -0.11612E-04  1320   0.932E-04-0.470E-06
CGA:  29    -0.112867020395E+04   -0.93597E-05   -0.93611E-05  1320   0.514E-04 0.451E-06
  10 F= -.11286702E+04 E0= -.11286496E+04  d E =-.499134E-02  mag=    19.9967
       N       E                     dE             d eps       ncg     rms          ort
SDA:   1    -0.109092341251E+04    0.37747E+02    0.00000E+00  1320   0.133E+03 0.000E+00
CGA:   2    -0.111490185325E+04   -0.23978E+02   -0.24104E+02  1320   0.747E+02-0.146E+01
CGA:   3    -0.112023284068E+04   -0.53310E+01   -0.55929E+01  1320   0.551E+02 0.232E+01
CGA:   4    -0.112594177965E+04   -0.57089E+01   -0.57081E+01  1320   0.159E+02 0.959E-01
CGA:   5    -0.112721007496E+04   -0.12683E+01   -0.12234E+01  1320   0.932E+01-0.131E+00
CGA:   6    -0.112815289334E+04   -0.94282E+00   -0.94363E+00  1320   0.403E+01 0.102E+00
CGA:   7    -0.112848960297E+04   -0.33671E+00   -0.33098E+00  1320   0.126E+01-0.362E-01
CGA:   8    -0.112859808355E+04   -0.10848E+00   -0.10907E+00  1320   0.767E+00 0.105E-01
CGA:   9    -0.112866139730E+04   -0.63314E-01   -0.63255E-01  1320   0.352E+00-0.244E-03
CGA:  10    -0.112869436319E+04   -0.32966E-01   -0.32967E-01  1320   0.239E+00 0.138E-03
CGA:  11    -0.112871924594E+04   -0.24883E-01   -0.24871E-01  1320   0.145E+00 0.346E-02
CGA:  12    -0.112873834698E+04   -0.19101E-01   -0.19099E-01  1320   0.984E-01 0.746E-04
CGA:  13    -0.112874822048E+04   -0.98735E-02   -0.98802E-02  1320   0.773E-01 0.103E-02
CGA:  14    -0.112875763790E+04   -0.94174E-02   -0.94085E-02  1320   0.612E-01 0.344E-03
CGA:  15    -0.112876333292E+04   -0.56950E-02   -0.56935E-02  1320   0.428E-01-0.553E-04
CGA:  16    -0.112876793224E+04   -0.45993E-02   -0.45987E-02  1320   0.252E-01 0.739E-04
CGA:  17    -0.112877066531E+04   -0.27331E-02   -0.27330E-02  1320   0.154E-01 0.654E-05
CGA:  18    -0.112877230408E+04   -0.16388E-02   -0.16386E-02  1320   0.941E-02 0.369E-04
CGA:  19    -0.112877342094E+04   -0.11169E-02   -0.11170E-02  1320   0.728E-02-0.196E-05
CGA:  20    -0.112877409052E+04   -0.66958E-03   -0.66975E-03  1320   0.500E-02 0.772E-05
CGA:  21    -0.112877465706E+04   -0.56654E-03   -0.56657E-03  1320   0.366E-02-0.321E-05
CGA:  22    -0.112877508427E+04   -0.42721E-03   -0.42732E-03  1320   0.243E-02-0.720E-05
CGA:  23    -0.112877535900E+04   -0.27472E-03   -0.27476E-03  1320   0.174E-02-0.380E-05
CGA:  24    -0.112877554757E+04   -0.18857E-03   -0.18857E-03  1320   0.118E-02 0.429E-06
CGA:  25    -0.112877567372E+04   -0.12615E-03   -0.12615E-03  1320   0.816E-03-0.238E-06
CGA:  26    -0.112877574572E+04   -0.72005E-04   -0.71993E-04  1320   0.484E-03-0.907E-06
CGA:  27    -0.112877580768E+04   -0.61958E-04   -0.62003E-04  1320   0.351E-03-0.193E-05
CGA:  28    -0.112877584725E+04   -0.39569E-04   -0.39565E-04  1320   0.236E-03 0.478E-06
CGA:  29    -0.112877587473E+04   -0.27479E-04   -0.27460E-04  1320   0.203E-03 0.201E-05
CGA:  30    -0.112877589743E+04   -0.22705E-04   -0.22691E-04  1320   0.155E-03 0.346E-05
CGA:  31    -0.112877591318E+04   -0.15749E-04   -0.15771E-04  1320   0.115E-03 0.301E-05
SDA:  32    -0.112877592745E+04   -0.14265E-04   -0.14224E-04  1320   0.848E-04 0.270E-05
CGA:  33    -0.112877593234E+04   -0.48967E-05   -0.48783E-05  1320   0.393E-04-0.403E-06
  11 F= -.11287759E+04 E0= -.11287571E+04  d E =-.105728E+00  mag=    19.9966
       N       E                     dE             d eps       ncg     rms          ort
SDA:   1    -0.111461583083E+04    0.14160E+02    0.00000E+00  1320   0.492E+02 0.000E+00
CGA:   2    -0.112295122830E+04   -0.83354E+01   -0.83854E+01  1320   0.329E+02-0.745E+00
CGA:   3    -0.112524127797E+04   -0.22900E+01   -0.23853E+01  1320   0.203E+02 0.423E+00
CGA:   4    -0.112752722545E+04   -0.22859E+01   -0.22860E+01  1320   0.803E+01-0.331E-01
CGA:   5    -0.112811025698E+04   -0.58303E+00   -0.58176E+00  1320   0.318E+01-0.505E-02
CGA:   6    -0.112843046545E+04   -0.32021E+00   -0.32072E+00  1320   0.169E+01 0.343E-01
CGA:   7    -0.112857969193E+04   -0.14923E+00   -0.14861E+00  1320   0.533E+00-0.749E-02
CGA:   8    -0.112862406652E+04   -0.44375E-01   -0.44425E-01  1320   0.205E+00 0.625E-03
CGA:   9    -0.112864757831E+04   -0.23512E-01   -0.23516E-01  1320   0.142E+00-0.220E-03
CGA:  10    -0.112865874483E+04   -0.11167E-01   -0.11174E-01  1320   0.750E-01 0.103E-03
CGA:  11    -0.112866703553E+04   -0.82907E-02   -0.82861E-02  1320   0.492E-01 0.442E-03
CGA:  12    -0.112867339926E+04   -0.63637E-02   -0.63613E-02  1320   0.322E-01 0.820E-04
CGA:  13    -0.112867697769E+04   -0.35784E-02   -0.35774E-02  1320   0.236E-01 0.112E-03
CGA:  14    -0.112867982101E+04   -0.28433E-02   -0.28432E-02  1320   0.187E-01-0.124E-05
CGA:  15    -0.112868194480E+04   -0.21238E-02   -0.21235E-02  1320   0.143E-01 0.126E-04
CGA:  16    -0.112868324175E+04   -0.12969E-02   -0.12974E-02  1320   0.727E-02 0.407E-05
CGA:  17    -0.112868406711E+04   -0.82536E-03   -0.82539E-03  1320   0.545E-02-0.155E-05
CGA:  18    -0.112868461364E+04   -0.54653E-03   -0.54658E-03  1320   0.252E-02 0.265E-05
CGA:  19    -0.112868492707E+04   -0.31343E-03   -0.31347E-03  1320   0.192E-02-0.242E-05
CGA:  20    -0.112868515721E+04   -0.23014E-03   -0.23016E-03  1320   0.140E-02-0.206E-05
CGA:  21    -0.112868529690E+04   -0.13969E-03   -0.13968E-03  1320   0.108E-02-0.100E-05
CGA:  22    -0.112868541366E+04   -0.11676E-03   -0.11676E-03  1320   0.671E-03 0.976E-06
CGA:  23    -0.112868549991E+04   -0.86248E-04   -0.86223E-04  1320   0.473E-03 0.118E-05
CGA:  24    -0.112868555291E+04   -0.53000E-04   -0.53000E-04  1320   0.325E-03 0.224E-06
CGA:  25    -0.112868559058E+04   -0.37667E-04   -0.37670E-04  1320   0.232E-03-0.589E-06
CGA:  26    -0.112868561450E+04   -0.23927E-04   -0.23931E-04  1320   0.161E-03 0.645E-06
CGA:  27    -0.112868563369E+04   -0.19188E-04   -0.19176E-04  1320   0.129E-03 0.128E-05
CGA:  28    -0.112868564761E+04   -0.13922E-04   -0.13926E-04  1320   0.995E-04 0.108E-05
CGA:  29    -0.112868566218E+04   -0.14567E-04   -0.14514E-04  1320   0.846E-04 0.145E-05
CGA:  30    -0.112868567316E+04   -0.10982E-04   -0.10966E-04  1320   0.731E-04 0.916E-06
CGA:  31    -0.112868568362E+04   -0.10456E-04   -0.10442E-04  1320   0.742E-04 0.448E-06
SDA:  32    -0.112868569115E+04   -0.75335E-05   -0.75413E-05  1320   0.586E-04 0.612E-06
  12 F= -.11286857E+04 E0= -.11286674E+04  d E =0.902412E-01  mag=    19.9981
       N       E                     dE             d eps       ncg     rms          ort
SDA:   1    -0.112366737874E+04    0.50183E+01    0.00000E+00  1320   0.200E+02 0.000E+00
CGA:   2    -0.112667942286E+04   -0.30120E+01   -0.30070E+01  1320   0.889E+01 0.965E-01
CGA:   3    -0.112762108547E+04   -0.94166E+00   -0.93732E+00  1320   0.832E+01-0.277E+00
CGA:   4    -0.112843690002E+04   -0.81581E+00   -0.81615E+00  1320   0.245E+01 0.139E-01
CGA:   5    -0.112864551732E+04   -0.20862E+00   -0.20774E+00  1320   0.102E+01-0.597E-02
CGA:   6    -0.112874475853E+04   -0.99241E-01   -0.99549E-01  1320   0.562E+00 0.102E-01
CGA:   7    -0.112878608430E+04   -0.41326E-01   -0.41581E-01  1320   0.211E+00 0.257E-03
CGA:   8    -0.112880259242E+04   -0.16508E-01   -0.16500E-01  1320   0.712E-01-0.454E-04
CGA:   9    -0.112881149113E+04   -0.88987E-02   -0.88994E-02  1320   0.358E-01-0.277E-04
CGA:  10    -0.112881555044E+04   -0.40593E-02   -0.40588E-02  1320   0.190E-01 0.365E-04
CGA:  11    -0.112881833538E+04   -0.27849E-02   -0.27829E-02  1320   0.136E-01 0.444E-04
CGA:  12    -0.112881959456E+04   -0.12592E-02   -0.12590E-02  1320   0.106E-01 0.434E-05
CGA:  13    -0.112882058689E+04   -0.99234E-03   -0.99272E-03  1320   0.589E-02 0.164E-04
CGA:  14    -0.112882137762E+04   -0.79073E-03   -0.79038E-03  1320   0.506E-02 0.130E-04
CGA:  15    -0.112882197408E+04   -0.59646E-03   -0.59637E-03  1320   0.271E-02 0.912E-05
CGA:  16    -0.112882233756E+04   -0.36348E-03   -0.36328E-03  1320   0.187E-02 0.714E-05
CGA:  17    -0.112882254966E+04   -0.21210E-03   -0.21209E-03  1320   0.127E-02 0.274E-05
CGA:  18    -0.112882266959E+04   -0.11993E-03   -0.11992E-03  1320   0.846E-03-0.884E-06
CGA:  19    -0.112882275738E+04   -0.87790E-04   -0.87779E-04  1320   0.580E-03-0.209E-05
CGA:  20    -0.112882282603E+04   -0.68642E-04   -0.68668E-04  1320   0.394E-03-0.284E-05
CGA:  21    -0.112882286869E+04   -0.42663E-04   -0.42661E-04  1320   0.317E-03-0.244E-05
CGA:  22    -0.112882290539E+04   -0.36702E-04   -0.36714E-04  1320   0.188E-03-0.184E-05
CGA:  23    -0.112882292916E+04   -0.23770E-04   -0.23767E-04  1320   0.131E-03 0.122E-06
CGA:  24    -0.112882294597E+04   -0.16814E-04   -0.16804E-04  1320   0.101E-03 0.571E-06
CGA:  25    -0.112882295545E+04   -0.94732E-05   -0.94659E-05  1320   0.713E-04-0.393E-06
  13 F= -.11288230E+04 E0= -.11288042E+04  d E =-.137264E+00  mag=    19.9980
       N       E                     dE             d eps       ncg     rms          ort
SDA:   1    -0.112635703195E+04    0.24659E+01    0.00000E+00  1320   0.756E+01 0.000E+00
CGA:   2    -0.112781789933E+04   -0.14609E+01   -0.14590E+01  1320   0.598E+01 0.222E-01
CGA:   3    -0.112828440414E+04   -0.46650E+00   -0.46186E+00  1320   0.335E+01-0.139E-02
CGA:   4    -0.112865396074E+04   -0.36956E+00   -0.36963E+00  1320   0.137E+01 0.140E-01
CGA:   5    -0.112875108021E+04   -0.97119E-01   -0.96581E-01  1320   0.490E+00 0.209E-02
CGA:   6    -0.112879912039E+04   -0.48040E-01   -0.47972E-01  1320   0.317E+00-0.186E-02
CGA:   7    -0.112882468113E+04   -0.25561E-01   -0.25587E-01  1320   0.849E-01 0.152E-03
CGA:   8    -0.112883206461E+04   -0.73835E-02   -0.73846E-02  1320   0.308E-01 0.100E-04
CGA:   9    -0.112883648907E+04   -0.44245E-02   -0.44234E-02  1320   0.190E-01 0.231E-04
CGA:  10    -0.112883835084E+04   -0.18618E-02   -0.18616E-02  1320   0.118E-01-0.316E-06
CGA:  11    -0.112883941326E+04   -0.10624E-02   -0.10627E-02  1320   0.813E-02 0.958E-05
CGA:  12    -0.112884035288E+04   -0.93962E-03   -0.93960E-03  1320   0.522E-02 0.525E-05
CGA:  13    -0.112884088929E+04   -0.53641E-03   -0.53644E-03  1320   0.356E-02 0.568E-05
CGA:  14    -0.112884129023E+04   -0.40094E-03   -0.40093E-03  1320   0.287E-02 0.627E-06
CGA:  15    -0.112884168848E+04   -0.39825E-03   -0.39835E-03  1320   0.185E-02-0.342E-05
CGA:  16    -0.112884187267E+04   -0.18419E-03   -0.18420E-03  1320   0.102E-02 0.151E-05
CGA:  17    -0.112884199184E+04   -0.11917E-03   -0.11916E-03  1320   0.860E-03 0.190E-05
CGA:  18    -0.112884207111E+04   -0.79275E-04   -0.79276E-04  1320   0.467E-03 0.580E-07
CGA:  19    -0.112884211497E+04   -0.43855E-04   -0.43841E-04  1320   0.311E-03-0.113E-05
CGA:  20    -0.112884215975E+04   -0.44784E-04   -0.44899E-04  1320   0.224E-03-0.313E-05
CGA:  21    -0.112884218643E+04   -0.26674E-04   -0.26687E-04  1320   0.159E-03-0.124E-05
CGA:  22    -0.112884220550E+04   -0.19072E-04   -0.19070E-04  1320   0.143E-03 0.153E-06
CGA:  23    -0.112884222117E+04   -0.15670E-04   -0.15670E-04  1320   0.960E-04 0.463E-06
CGA:  24    -0.112884223129E+04   -0.10125E-04   -0.10126E-04  1320   0.725E-04 0.115E-06
CGA:  25    -0.112884223997E+04   -0.86764E-05   -0.86781E-05  1320   0.654E-04-0.235E-06
  14 F= -.11288422E+04 E0= -.11288232E+04  d E =-.192845E-01  mag=    19.9978
       N       E                     dE             d eps       ncg     rms          ort
SDA:   1    -0.111027072821E+04    0.18572E+02    0.00000E+00  1320   0.683E+02 0.000E+00
CGA:   2    -0.112055461160E+04   -0.10284E+02   -0.10277E+02  1320   0.294E+02 0.178E+00
CGA:   3    -0.112470769888E+04   -0.41531E+01   -0.42242E+01  1320   0.304E+02-0.176E+01
CGA:   4    -0.112717347034E+04   -0.24658E+01   -0.24910E+01  1320   0.107E+02 0.233E+00
CGA:   5    -0.112786180245E+04   -0.68833E+00   -0.69812E+00  1320   0.397E+01-0.182E-01
CGA:   6    -0.112819268128E+04   -0.33088E+00   -0.33165E+00  1320   0.155E+01 0.858E-02
CGA:   7    -0.112837276890E+04   -0.18009E+00   -0.18011E+00  1320   0.501E+00-0.197E-02
CGA:   8    -0.112841851498E+04   -0.45746E-01   -0.45829E-01  1320   0.284E+00 0.146E-02
CGA:   9    -0.112844252829E+04   -0.24013E-01   -0.24012E-01  1320   0.153E+00 0.205E-04
CGA:  10    -0.112845786544E+04   -0.15337E-01   -0.15339E-01  1320   0.891E-01 0.941E-04
CGA:  11    -0.112846570059E+04   -0.78352E-02   -0.78473E-02  1320   0.486E-01 0.193E-03
CGA:  12    -0.112847156821E+04   -0.58676E-02   -0.58685E-02  1320   0.326E-01-0.332E-04
CGA:  13    -0.112847478909E+04   -0.32209E-02   -0.32216E-02  1320   0.182E-01 0.469E-04
CGA:  14    -0.112847695144E+04   -0.21623E-02   -0.21618E-02  1320   0.144E-01 0.377E-04
CGA:  15    -0.112847850003E+04   -0.15486E-02   -0.15486E-02  1320   0.122E-01 0.333E-04
CGA:  16    -0.112847953948E+04   -0.10395E-02   -0.10398E-02  1320   0.555E-02 0.163E-04
CGA:  17    -0.112848024929E+04   -0.70980E-03   -0.70945E-03  1320   0.389E-02 0.165E-04
CGA:  18    -0.112848069699E+04   -0.44770E-03   -0.44769E-03  1320   0.222E-02 0.961E-06
CGA:  19    -0.112848094364E+04   -0.24665E-03   -0.24666E-03  1320   0.190E-02-0.124E-05
CGA:  20    -0.112848110770E+04   -0.16406E-03   -0.16399E-03  1320   0.121E-02-0.287E-05
CGA:  21    -0.112848126756E+04   -0.15986E-03   -0.16001E-03  1320   0.743E-03-0.585E-05
CGA:  22    -0.112848135790E+04   -0.90338E-04   -0.90383E-04  1320   0.710E-03-0.322E-05
CGA:  23    -0.112848143481E+04   -0.76913E-04   -0.76913E-04  1320   0.412E-03-0.139E-05
CGA:  24    -0.112848148064E+04   -0.45826E-04   -0.45828E-04  1320   0.344E-03-0.578E-06
CGA:  25    -0.112848151320E+04   -0.32568E-04   -0.32557E-04  1320   0.215E-03-0.751E-06
CGA:  26    -0.112848153780E+04   -0.24600E-04   -0.24607E-04  1320   0.147E-03-0.114E-05
CGA:  27    -0.112848155271E+04   -0.14907E-04   -0.14901E-04  1320   0.104E-03-0.914E-06
CGA:  28    -0.112848156561E+04   -0.12903E-04   -0.12922E-04  1320   0.683E-04-0.116E-05
CGA:  29    -0.112848157421E+04   -0.85930E-05   -0.85954E-05  1320   0.678E-04-0.176E-06
  15 F= -.11284816E+04 E0= -.11284621E+04  d E =0.360666E+00  mag=    19.9963
       N       E                     dE             d eps       ncg     rms          ort
SDA:   1    -0.111913785074E+04    0.93437E+01    0.00000E+00  1320   0.415E+02 0.000E+00
CGA:   2    -0.112449635744E+04   -0.53585E+01   -0.53628E+01  1320   0.184E+02-0.121E+00
CGA:   3    -0.112627095549E+04   -0.17746E+01   -0.17753E+01  1320   0.146E+02 0.577E-01
CGA:   4    -0.112787563982E+04   -0.16047E+01   -0.16044E+01  1320   0.984E+01 0.153E+00
CGA:   5    -0.112849270445E+04   -0.61706E+00   -0.61227E+00  1320   0.204E+01 0.526E-01
CGA:   6    -0.112868087353E+04   -0.18817E+00   -0.18799E+00  1320   0.817E+00-0.382E-02
CGA:   7    -0.112877310903E+04   -0.92235E-01   -0.92212E-01  1320   0.345E+00 0.186E-02
CGA:   8    -0.112880369594E+04   -0.30587E-01   -0.30598E-01  1320   0.131E+00 0.266E-03
CGA:   9    -0.112881788694E+04   -0.14191E-01   -0.14190E-01  1320   0.951E-01 0.136E-03
CGA:  10    -0.112882503814E+04   -0.71512E-02   -0.71747E-02  1320   0.420E-01 0.142E-03
CGA:  11    -0.112882947101E+04   -0.44329E-02   -0.44326E-02  1320   0.288E-01 0.139E-03
CGA:  12    -0.112883235611E+04   -0.28851E-02   -0.28851E-02  1320   0.180E-01 0.116E-04
CGA:  13    -0.112883414905E+04   -0.17929E-02   -0.17932E-02  1320   0.946E-02 0.252E-04
CGA:  14    -0.112883529228E+04   -0.11432E-02   -0.11434E-02  1320   0.697E-02-0.112E-04
CGA:  15    -0.112883620575E+04   -0.91347E-03   -0.91354E-03  1320   0.461E-02-0.681E-05
CGA:  16    -0.112883670241E+04   -0.49665E-03   -0.49669E-03  1320   0.399E-02-0.144E-04
CGA:  17    -0.112883702618E+04   -0.32377E-03   -0.32356E-03  1320   0.217E-02-0.107E-04
CGA:  18    -0.112883726663E+04   -0.24046E-03   -0.24049E-03  1320   0.122E-02-0.535E-05
CGA:  19    -0.112883742286E+04   -0.15623E-03   -0.15629E-03  1320   0.735E-03-0.254E-05
CGA:  20    -0.112883751748E+04   -0.94620E-04   -0.94594E-04  1320   0.531E-03 0.876E-06
CGA:  21    -0.112883757614E+04   -0.58655E-04   -0.58656E-04  1320   0.496E-03-0.480E-06
CGA:  22    -0.112883762383E+04   -0.47695E-04   -0.47678E-04  1320   0.347E-03-0.163E-05
CGA:  23    -0.112883765975E+04   -0.35922E-04   -0.35918E-04  1320   0.224E-03-0.149E-05
CGA:  24    -0.112883768505E+04   -0.25291E-04   -0.25293E-04  1320   0.160E-03-0.322E-06
CGA:  25    -0.112883770310E+04   -0.18056E-04   -0.18056E-04  1320   0.109E-03-0.185E-06
CGA:  26    -0.112883771405E+04   -0.10951E-04   -0.10955E-04  1320   0.678E-04 0.479E-06
CGA:  27    -0.112883772301E+04   -0.89610E-05   -0.89457E-05  1320   0.437E-04 0.567E-06
  16 F= -.11288377E+04 E0= -.11288178E+04  d E =-.356149E+00  mag=    19.9956
       N       E                     dE             d eps       ncg     rms          ort
SDA:   1    -0.112871152374E+04    0.12619E+00    0.00000E+00  1320   0.608E+00 0.000E+00
CGA:   2    -0.112878159172E+04   -0.70068E-01   -0.70075E-01  1320   0.462E+00-0.501E-03
CGA:   3    -0.112880908437E+04   -0.27493E-01   -0.27491E-01  1320   0.179E+00 0.878E-04
CGA:   4    -0.112884031261E+04   -0.31228E-01   -0.31245E-01  1320   0.110E+00-0.221E-03
CGA:   5    -0.112884872154E+04   -0.84089E-02   -0.84128E-02  1320   0.258E-01-0.197E-05
CGA:   6    -0.112885142837E+04   -0.27068E-02   -0.27068E-02  1320   0.138E-01-0.169E-05
CGA:   7    -0.112885245473E+04   -0.10264E-02   -0.10267E-02  1320   0.638E-02-0.980E-06
CGA:   8    -0.112885295435E+04   -0.49962E-03   -0.49933E-03  1320   0.215E-02-0.704E-05
CGA:   9    -0.112885319978E+04   -0.24542E-03   -0.24548E-03  1320   0.104E-02-0.570E-05
CGA:  10    -0.112885331086E+04   -0.11108E-03   -0.11109E-03  1320   0.654E-03-0.154E-05
CGA:  11    -0.112885336956E+04   -0.58705E-04   -0.58718E-04  1320   0.428E-03 0.912E-06
CGA:  12    -0.112885341158E+04   -0.42018E-04   -0.42030E-04  1320   0.236E-03 0.190E-05
CGA:  13    -0.112885343656E+04   -0.24982E-04   -0.24980E-04  1320   0.152E-03 0.142E-05
CGA:  14    -0.112885345173E+04   -0.15162E-04   -0.15170E-04  1320   0.109E-03 0.147E-05
CGA:  15    -0.112885346495E+04   -0.13224E-04   -0.13202E-04  1320   0.728E-04 0.140E-05
CGA:  16    -0.112885347325E+04   -0.82954E-05   -0.82894E-05  1320   0.512E-04 0.777E-06
  17 F= -.11288535E+04 E0= -.11288336E+04  d E =-.157502E-01  mag=    19.9956
       N       E                     dE             d eps       ncg     rms          ort
SDA:   1    -0.112860918290E+04    0.24428E+00    0.00000E+00  1320   0.102E+01 0.000E+00
CGA:   2    -0.112874584517E+04   -0.13666E+00   -0.13674E+00  1320   0.595E+00-0.190E-02
CGA:   3    -0.112878717838E+04   -0.41333E-01   -0.41643E-01  1320   0.376E+00-0.138E-04
CGA:   4    -0.112883724787E+04   -0.50069E-01   -0.50043E-01  1320   0.226E+00 0.636E-03
CGA:   5    -0.112885207945E+04   -0.14832E-01   -0.14767E-01  1320   0.542E-01 0.201E-03
CGA:   6    -0.112885730860E+04   -0.52292E-02   -0.52299E-02  1320   0.288E-01 0.494E-04
CGA:   7    -0.112885986698E+04   -0.25584E-02   -0.25580E-02  1320   0.967E-02-0.351E-05
CGA:   8    -0.112886074798E+04   -0.88100E-03   -0.88100E-03  1320   0.400E-02-0.585E-05
CGA:   9    -0.112886115639E+04   -0.40841E-03   -0.40841E-03  1320   0.266E-02-0.545E-05
CGA:  10    -0.112886135262E+04   -0.19623E-03   -0.19617E-03  1320   0.125E-02-0.157E-05
CGA:  11    -0.112886150058E+04   -0.14796E-03   -0.14793E-03  1320   0.740E-03 0.169E-05
CGA:  12    -0.112886159234E+04   -0.91764E-04   -0.91677E-04  1320   0.471E-03 0.400E-05
CGA:  13    -0.112886164030E+04   -0.47957E-04   -0.47959E-04  1320   0.301E-03 0.196E-05
CGA:  14    -0.112886167426E+04   -0.33964E-04   -0.33945E-04  1320   0.252E-03 0.193E-05
CGA:  15    -0.112886169869E+04   -0.24430E-04   -0.24441E-04  1320   0.170E-03 0.160E-05
CGA:  16    -0.112886171660E+04   -0.17902E-04   -0.17901E-04  1320   0.113E-03 0.573E-06
CGA:  17    -0.112886172866E+04   -0.12060E-04   -0.12057E-04  1320   0.694E-04 0.743E-06
CGA:  18    -0.112886173602E+04   -0.73642E-05   -0.73628E-05  1320   0.429E-04 0.629E-06
  18 F= -.11288617E+04 E0= -.11288418E+04  d E =-.826277E-02  mag=    19.9957
       N       E                     dE             d eps       ncg     rms          ort
SDA:   1    -0.112876415584E+04    0.97573E-01    0.00000E+00  1320   0.359E+00 0.000E+00
CGA:   2    -0.112881531639E+04   -0.51161E-01   -0.51226E-01  1320   0.357E+00-0.126E-02
CGA:   3    -0.112883637083E+04   -0.21054E-01   -0.21143E-01  1320   0.126E+00-0.437E-03
CGA:   4    -0.112885485631E+04   -0.18485E-01   -0.18480E-01  1320   0.749E-01 0.116E-03
CGA:   5    -0.112886017670E+04   -0.53204E-02   -0.53151E-02  1320   0.221E-01 0.493E-05
CGA:   6    -0.112886238214E+04   -0.22054E-02   -0.22055E-02  1320   0.131E-01 0.136E-04
CGA:   7    -0.112886355289E+04   -0.11708E-02   -0.11712E-02  1320   0.376E-02 0.107E-04
CGA:   8    -0.112886384847E+04   -0.29557E-03   -0.29554E-03  1320   0.166E-02-0.897E-06
CGA:   9    -0.112886400276E+04   -0.15429E-03   -0.15431E-03  1320   0.115E-02 0.132E-05
CGA:  10    -0.112886410819E+04   -0.10542E-03   -0.10544E-03  1320   0.476E-03 0.259E-05
CGA:  11    -0.112886416263E+04   -0.54442E-04   -0.54409E-04  1320   0.366E-03 0.248E-05
CGA:  12    -0.112886421049E+04   -0.47861E-04   -0.47747E-04  1320   0.218E-03 0.403E-05
CGA:  13    -0.112886423205E+04   -0.21562E-04   -0.21564E-04  1320   0.156E-03 0.333E-06
CGA:  14    -0.112886424874E+04   -0.16687E-04   -0.16690E-04  1320   0.152E-03-0.787E-06
CGA:  15    -0.112886426536E+04   -0.16620E-04   -0.16629E-04  1320   0.806E-04-0.129E-05
CGA:  16    -0.112886427424E+04   -0.88798E-05   -0.88878E-05  1320   0.543E-04-0.964E-06
  19 F= -.11288643E+04 E0= -.11288443E+04  d E =-.253822E-02  mag=    19.9959
       N       E                     dE             d eps       ncg     rms          ort
SDA:   1    -0.112785472109E+04    0.10095E+01    0.00000E+00  1320   0.320E+01 0.000E+00
CGA:   2    -0.112846562456E+04   -0.61090E+00   -0.61093E+00  1320   0.228E+01-0.932E-04
CGA:   3    -0.112864100122E+04   -0.17538E+00   -0.17580E+00  1320   0.137E+01 0.960E-03
CGA:   4    -0.112878000124E+04   -0.13900E+00   -0.13896E+00  1320   0.641E+00-0.274E-02
CGA:   5    -0.112882668444E+04   -0.46683E-01   -0.46593E-01  1320   0.224E+00 0.280E-04
CGA:   6    -0.112884757101E+04   -0.20887E-01   -0.20894E-01  1320   0.131E+00 0.267E-03
CGA:   7    -0.112885906426E+04   -0.11493E-01   -0.11487E-01  1320   0.374E-01-0.935E-04
CGA:   8    -0.112886198579E+04   -0.29215E-02   -0.29232E-02  1320   0.132E-01 0.147E-04
CGA:   9    -0.112886385420E+04   -0.18684E-02   -0.18684E-02  1320   0.936E-02 0.413E-05
CGA:  10    -0.112886457544E+04   -0.72124E-03   -0.72171E-03  1320   0.525E-02 0.121E-04
CGA:  11    -0.112886511882E+04   -0.54338E-03   -0.54338E-03  1320   0.362E-02 0.116E-04
CGA:  12    -0.112886554522E+04   -0.42640E-03   -0.42632E-03  1320   0.242E-02 0.652E-05
CGA:  13    -0.112886579285E+04   -0.24763E-03   -0.24764E-03  1320   0.131E-02 0.466E-05
CGA:  14    -0.112886600244E+04   -0.20959E-03   -0.21002E-03  1320   0.159E-02-0.751E-05
CGA:  15    -0.112886614385E+04   -0.14140E-03   -0.14131E-03  1320   0.862E-03-0.597E-05
CGA:  16    -0.112886623048E+04   -0.86633E-04   -0.86624E-04  1320   0.575E-03-0.174E-05
CGA:  17    -0.112886629419E+04   -0.63714E-04   -0.63719E-04  1320   0.437E-03-0.855E-06
CGA:  18    -0.112886633856E+04   -0.44366E-04   -0.44360E-04  1320   0.235E-03-0.126E-05
CGA:  19    -0.112886636390E+04   -0.25344E-04   -0.25344E-04  1320   0.171E-03-0.227E-06
CGA:  20    -0.112886638880E+04   -0.24893E-04   -0.24898E-04  1320   0.143E-03-0.133E-06
CGA:  21    -0.112886640369E+04   -0.14890E-04   -0.14893E-04  1320   0.115E-03 0.822E-06
CGA:  22    -0.112886641459E+04   -0.10901E-04   -0.10915E-04  1320   0.821E-04 0.104E-05
CGA:  23    -0.112886642640E+04   -0.11812E-04   -0.11772E-04  1320   0.577E-04 0.114E-05
CGA:  24    -0.112886643381E+04   -0.74063E-05   -0.73996E-05  1320   0.456E-04 0.360E-06
  20 F= -.11288664E+04 E0= -.11288464E+04  d E =-.215957E-02  mag=    19.9964
       N       E                     dE             d eps       ncg     rms          ort
SDA:   1    -0.112642805042E+04    0.24384E+01    0.00000E+00  1320   0.752E+01 0.000E+00
CGA:   2    -0.112790013583E+04   -0.14721E+01   -0.14701E+01  1320   0.596E+01 0.221E-01
CGA:   3    -0.112829659607E+04   -0.39646E+00   -0.38800E+00  1320   0.323E+01 0.563E-01
CGA:   4    -0.112865847282E+04   -0.36188E+00   -0.36188E+00  1320   0.136E+01-0.679E-03
CGA:   5    -0.112876352974E+04   -0.10506E+00   -0.10559E+00  1320   0.502E+00 0.145E-02
CGA:   6    -0.112881724928E+04   -0.53720E-01   -0.53712E-01  1320   0.276E+00-0.128E-02
CGA:   7    -0.112883949168E+04   -0.22242E-01   -0.22288E-01  1320   0.850E-01 0.262E-03
CGA:   8    -0.112884656304E+04   -0.70714E-02   -0.70698E-02  1320   0.311E-01-0.628E-06
CGA:   9    -0.112885042569E+04   -0.38626E-02   -0.38613E-02  1320   0.251E-01 0.602E-04
CGA:  10    -0.112885229900E+04   -0.18733E-02   -0.18746E-02  1320   0.127E-01 0.172E-04
CGA:  11    -0.112885364675E+04   -0.13478E-02   -0.13478E-02  1320   0.758E-02 0.301E-05
CGA:  12    -0.112885466597E+04   -0.10192E-02   -0.10188E-02  1320   0.530E-02 0.150E-04
CGA:  13    -0.112885530101E+04   -0.63504E-03   -0.63495E-03  1320   0.354E-02 0.610E-05
CGA:  14    -0.112885570062E+04   -0.39961E-03   -0.39964E-03  1320   0.337E-02-0.710E-05
CGA:  15    -0.112885610232E+04   -0.40171E-03   -0.40181E-03  1320   0.258E-02-0.847E-05
CGA:  16    -0.112885631064E+04   -0.20832E-03   -0.20832E-03  1320   0.126E-02-0.851E-06
CGA:  17    -0.112885645958E+04   -0.14894E-03   -0.14894E-03  1320   0.923E-03-0.279E-07
CGA:  18    -0.112885656623E+04   -0.10665E-03   -0.10665E-03  1320   0.648E-03 0.287E-06
CGA:  19    -0.112885662811E+04   -0.61881E-04   -0.61879E-04  1320   0.363E-03-0.299E-06
CGA:  20    -0.112885668199E+04   -0.53879E-04   -0.53938E-04  1320   0.353E-03-0.146E-05
CGA:  21    -0.112885672171E+04   -0.39718E-04   -0.39719E-04  1320   0.307E-03-0.577E-06
CGA:  22    -0.112885674708E+04   -0.25373E-04   -0.25390E-04  1320   0.169E-03 0.543E-06
CGA:  23    -0.112885677416E+04   -0.27075E-04   -0.27002E-04  1320   0.157E-03 0.145E-05
CGA:  24    -0.112885679255E+04   -0.18396E-04   -0.18392E-04  1320   0.978E-04 0.829E-06
CGA:  25    -0.112885680559E+04   -0.13040E-04   -0.13048E-04  1320   0.101E-03-0.362E-06
CGA:  26    -0.112885681535E+04   -0.97593E-05   -0.97503E-05  1320   0.782E-04-0.610E-06
CGA:  27    -0.112885682594E+04   -0.10590E-04   -0.10603E-04  1320   0.720E-04-0.546E-06
CGA:  28    -0.112885683461E+04   -0.86638E-05   -0.86605E-05  1320   0.779E-04 0.437E-06
CGA:  29    -0.112885684551E+04   -0.10899E-04   -0.10864E-04  1320   0.752E-04 0.139E-05
CGA:  30    -0.112885685702E+04   -0.11518E-04   -0.11468E-04  1320   0.795E-04 0.144E-05
CGA:  31    -0.112885686926E+04   -0.12238E-04   -0.12237E-04  1320   0.961E-04 0.378E-07
SDA:  32    -0.112885687957E+04   -0.10305E-04   -0.10307E-04  1320   0.833E-04 0.193E-06
CGA:  33    -0.112885688403E+04   -0.44623E-05   -0.44672E-05  1320   0.395E-04 0.731E-07
  21 F= -.11288569E+04 E0= -.11288367E+04  d E =0.954978E-02  mag=    19.9965
       N       E                     dE             d eps       ncg     rms          ort
SDA:   1    -0.112684124985E+04    0.20156E+01    0.00000E+00  1320   0.633E+01 0.000E+00
CGA:   2    -0.112800685579E+04   -0.11656E+01   -0.11637E+01  1320   0.579E+01 0.245E-01
CGA:   3    -0.112837346239E+04   -0.36661E+00   -0.35465E+00  1320   0.259E+01 0.117E+00
CGA:   4    -0.112869547861E+04   -0.32202E+00   -0.32212E+00  1320   0.122E+01-0.127E-01
CGA:   5    -0.112878747398E+04   -0.91995E-01   -0.92360E-01  1320   0.426E+00-0.305E-03
CGA:   6    -0.112883282951E+04   -0.45356E-01   -0.45343E-01  1320   0.231E+00-0.531E-03
CGA:   7    -0.112885181216E+04   -0.18983E-01   -0.19022E-01  1320   0.791E-01 0.172E-03
CGA:   8    -0.112885838021E+04   -0.65681E-02   -0.65594E-02  1320   0.265E-01-0.223E-04
CGA:   9    -0.112886140506E+04   -0.30249E-02   -0.30248E-02  1320   0.223E-01 0.108E-04
CGA:  10    -0.112886320979E+04   -0.18047E-02   -0.18061E-02  1320   0.110E-01 0.144E-04
CGA:  11    -0.112886426500E+04   -0.10552E-02   -0.10554E-02  1320   0.661E-02 0.114E-04
CGA:  12    -0.112886511965E+04   -0.85465E-03   -0.85447E-03  1320   0.443E-02 0.808E-05
CGA:  13    -0.112886565110E+04   -0.53145E-03   -0.53141E-03  1320   0.280E-02 0.384E-05
CGA:  14    -0.112886601274E+04   -0.36165E-03   -0.36170E-03  1320   0.276E-02-0.337E-05
CGA:  15    -0.112886627872E+04   -0.26598E-03   -0.26592E-03  1320   0.200E-02-0.378E-05
CGA:  16    -0.112886648510E+04   -0.20637E-03   -0.20638E-03  1320   0.114E-02 0.153E-08
CGA:  17    -0.112886659489E+04   -0.10980E-03   -0.10982E-03  1320   0.700E-03 0.116E-05
CGA:  18    -0.112886667363E+04   -0.78741E-04   -0.78740E-04  1320   0.463E-03 0.716E-06
CGA:  19    -0.112886672582E+04   -0.52187E-04   -0.52190E-04  1320   0.313E-03-0.115E-05
CGA:  20    -0.112886675960E+04   -0.33782E-04   -0.33780E-04  1320   0.205E-03-0.127E-05
CGA:  21    -0.112886678570E+04   -0.26100E-04   -0.26112E-04  1320   0.202E-03-0.667E-06
CGA:  22    -0.112886680422E+04   -0.18514E-04   -0.18513E-04  1320   0.132E-03-0.728E-07
CGA:  23    -0.112886681800E+04   -0.13777E-04   -0.13779E-04  1320   0.788E-04 0.192E-06
CGA:  24    -0.112886682908E+04   -0.11084E-04   -0.11074E-04  1320   0.607E-04 0.313E-06
CGA:  25    -0.112886683741E+04   -0.83318E-05   -0.83350E-05  1320   0.465E-04-0.127E-06
  22 F= -.11288668E+04 E0= -.11288463E+04  d E =-.995338E-02  mag=    19.9961
       N       E                     dE             d eps       ncg     rms          ort
SDA:   1    -0.112146066340E+04    0.74062E+01    0.00000E+00  1320   0.227E+02 0.000E+00
CGA:   2    -0.112572229831E+04   -0.42616E+01   -0.42502E+01  1320   0.181E+02 0.141E+00
CGA:   3    -0.112709721332E+04   -0.13749E+01   -0.13429E+01  1320   0.107E+02 0.341E-01
CGA:   4    -0.112817646273E+04   -0.10792E+01   -0.10784E+01  1320   0.552E+01-0.177E-01
CGA:   5    -0.112854203002E+04   -0.36557E+00   -0.37019E+00  1320   0.143E+01-0.754E-02
CGA:   6    -0.112870261356E+04   -0.16058E+00   -0.16068E+00  1320   0.105E+01-0.182E-01
CGA:   7    -0.112878053249E+04   -0.77919E-01   -0.78175E-01  1320   0.263E+00 0.583E-03
CGA:   8    -0.112880375774E+04   -0.23225E-01   -0.23191E-01  1320   0.107E+00-0.466E-03
CGA:   9    -0.112881718172E+04   -0.13424E-01   -0.13424E-01  1320   0.667E-01-0.802E-05
CGA:  10    -0.112882284604E+04   -0.56643E-02   -0.56692E-02  1320   0.403E-01 0.725E-04
CGA:  11    -0.112882646791E+04   -0.36219E-02   -0.36239E-02  1320   0.285E-01 0.645E-04
CGA:  12    -0.112882938342E+04   -0.29155E-02   -0.29154E-02  1320   0.152E-01 0.288E-05
CGA:  13    -0.112883126173E+04   -0.18783E-02   -0.18777E-02  1320   0.969E-02 0.306E-04
CGA:  14    -0.112883264185E+04   -0.13801E-02   -0.13797E-02  1320   0.856E-02 0.110E-04
CGA:  15    -0.112883353788E+04   -0.89603E-03   -0.89611E-03  1320   0.636E-02 0.120E-04
CGA:  16    -0.112883417514E+04   -0.63726E-03   -0.63733E-03  1320   0.458E-02 0.592E-05
CGA:  17    -0.112883456147E+04   -0.38634E-03   -0.38652E-03  1320   0.220E-02 0.339E-05
CGA:  18    -0.112883482975E+04   -0.26828E-03   -0.26823E-03  1320   0.169E-02 0.415E-05
CGA:  19    -0.112883499808E+04   -0.16833E-03   -0.16835E-03  1320   0.105E-02 0.193E-05
CGA:  20    -0.112883511404E+04   -0.11596E-03   -0.11597E-03  1320   0.690E-03-0.217E-05
CGA:  21    -0.112883520059E+04   -0.86551E-04   -0.86601E-04  1320   0.575E-03-0.297E-05
CGA:  22    -0.112883525960E+04   -0.59015E-04   -0.59003E-04  1320   0.433E-03-0.230E-05
CGA:  23    -0.112883529922E+04   -0.39616E-04   -0.39599E-04  1320   0.283E-03-0.935E-06
CGA:  24    -0.112883532876E+04   -0.29545E-04   -0.29546E-04  1320   0.192E-03 0.350E-06
CGA:  25    -0.112883535587E+04   -0.27102E-04   -0.27099E-04  1320   0.101E-03 0.403E-07
CGA:  26    -0.112883536851E+04   -0.12639E-04   -0.12661E-04  1320   0.956E-04-0.135E-05
CGA:  27    -0.112883537750E+04   -0.89931E-05   -0.89700E-05  1320   0.762E-04-0.159E-05
  23 F= -.11288354E+04 E0= -.11288141E+04  d E =0.314599E-01  mag=    19.9945
       N       E                     dE             d eps       ncg     rms          ort
SDA:   1    -0.112771477369E+04    0.11206E+01    0.00000E+00  1320   0.480E+01 0.000E+00
CGA:   2    -0.112837405268E+04   -0.65928E+00   -0.65919E+00  1320   0.181E+01 0.275E-02
CGA:   3    -0.112860388433E+04   -0.22983E+00   -0.22973E+00  1320   0.186E+01 0.364E-02
CGA:   4    -0.112879525695E+04   -0.19137E+00   -0.19132E+00  1320   0.655E+00-0.270E-02
CGA:   5    -0.112884230746E+04   -0.47051E-01   -0.46852E-01  1320   0.197E+00 0.157E-03
CGA:   6    -0.112886230512E+04   -0.19998E-01   -0.20000E-01  1320   0.848E-01 0.193E-03
CGA:   7    -0.112887001420E+04   -0.77091E-02   -0.77060E-02  1320   0.349E-01-0.244E-04
CGA:   8    -0.112887270499E+04   -0.26908E-02   -0.26928E-02  1320   0.199E-01 0.312E-04
CGA:   9    -0.112887436798E+04   -0.16630E-02   -0.16639E-02  1320   0.862E-02 0.243E-04
CGA:  10    -0.112887527354E+04   -0.90556E-03   -0.90556E-03  1320   0.421E-02 0.585E-05
CGA:  11    -0.112887581618E+04   -0.54264E-03   -0.54257E-03  1320   0.292E-02 0.223E-05
CGA:  12    -0.112887609684E+04   -0.28066E-03   -0.28066E-03  1320   0.156E-02-0.766E-07
CGA:  13    -0.112887626265E+04   -0.16581E-03   -0.16581E-03  1320   0.109E-02-0.379E-06
CGA:  14    -0.112887637768E+04   -0.11503E-03   -0.11503E-03  1320   0.822E-03-0.192E-05
CGA:  15    -0.112887645914E+04   -0.81457E-04   -0.81440E-04  1320   0.592E-03-0.259E-05
CGA:  16    -0.112887651428E+04   -0.55141E-04   -0.55101E-04  1320   0.389E-03-0.349E-05
CGA:  17    -0.112887655611E+04   -0.41833E-04   -0.41846E-04  1320   0.220E-03-0.335E-05
CGA:  18    -0.112887658242E+04   -0.26307E-04   -0.26338E-04  1320   0.122E-03-0.200E-05
CGA:  19    -0.112887659729E+04   -0.14875E-04   -0.14890E-04  1320   0.103E-03-0.883E-06
CGA:  20    -0.112887660679E+04   -0.94965E-05   -0.94911E-05  1320   0.666E-04-0.429E-06
  24 F= -.11288766E+04 E0= -.11288553E+04  d E =-.412293E-01  mag=    19.9940
       N       E                     dE             d eps       ncg     rms          ort
SDA:   1    -0.112862221243E+04    0.25438E+00    0.00000E+00  1320   0.855E+00 0.000E+00
CGA:   2    -0.112873984675E+04   -0.11763E+00   -0.11755E+00  1320   0.118E+01 0.201E-02
CGA:   3    -0.112881278196E+04   -0.72935E-01   -0.72837E-01  1320   0.289E+00 0.970E-03
CGA:   4    -0.112885732737E+04   -0.44545E-01   -0.44554E-01  1320   0.191E+00-0.136E-03
CGA:   5    -0.112886919723E+04   -0.11870E-01   -0.11897E-01  1320   0.502E-01-0.168E-03
CGA:   6    -0.112887530177E+04   -0.61045E-02   -0.61065E-02  1320   0.313E-01-0.705E-04
CGA:   7    -0.112887779407E+04   -0.24923E-02   -0.24940E-02  1320   0.887E-02 0.131E-04
CGA:   8    -0.112887849115E+04   -0.69708E-03   -0.69667E-03  1320   0.413E-02-0.215E-05
CGA:   9    -0.112887890999E+04   -0.41884E-03   -0.41883E-03  1320   0.305E-02-0.358E-05
CGA:  10    -0.112887914162E+04   -0.23163E-03   -0.23164E-03  1320   0.129E-02 0.276E-06
CGA:  11    -0.112887929391E+04   -0.15229E-03   -0.15222E-03  1320   0.863E-03 0.457E-05
CGA:  12    -0.112887940975E+04   -0.11583E-03   -0.11579E-03  1320   0.581E-03 0.132E-05
CGA:  13    -0.112887947258E+04   -0.62834E-04   -0.62830E-04  1320   0.381E-03 0.117E-05
CGA:  14    -0.112887951581E+04   -0.43230E-04   -0.43227E-04  1320   0.431E-03 0.172E-06
CGA:  15    -0.112887955899E+04   -0.43180E-04   -0.43177E-04  1320   0.229E-03-0.570E-06
CGA:  16    -0.112887958073E+04   -0.21735E-04   -0.21738E-04  1320   0.145E-03 0.383E-06
CGA:  17    -0.112887959482E+04   -0.14098E-04   -0.14100E-04  1320   0.946E-04 0.301E-06
CGA:  18    -0.112887960597E+04   -0.11148E-04   -0.11147E-04  1320   0.431E-04 0.751E-07
CGA:  19    -0.112887961073E+04   -0.47600E-05   -0.47607E-05  1320   0.343E-04-0.108E-06
  25 F= -.11288796E+04 E0= -.11288583E+04  d E =-.300394E-02  mag=    19.9937
       N       E                     dE             d eps       ncg     rms          ort
SDA:   1    -0.112588201034E+04    0.29976E+01    0.00000E+00  1320   0.897E+01 0.000E+00
CGA:   2    -0.112767352112E+04   -0.17915E+01   -0.17856E+01  1320   0.809E+01 0.612E-01
CGA:   3    -0.112818040255E+04   -0.50688E+00   -0.49154E+00  1320   0.373E+01 0.115E+00
CGA:   4    -0.112864686857E+04   -0.46647E+00   -0.46670E+00  1320   0.191E+01-0.970E-02
CGA:   5    -0.112876504170E+04   -0.11817E+00   -0.11792E+00  1320   0.569E+00 0.840E-03
CGA:   6    -0.112883162446E+04   -0.66583E-01   -0.66628E-01  1320   0.377E+00-0.241E-02
CGA:   7    -0.112885973649E+04   -0.28112E-01   -0.28165E-01  1320   0.806E-01 0.184E-03
CGA:   8    -0.112886798846E+04   -0.82520E-02   -0.82512E-02  1320   0.416E-01-0.141E-03
CGA:   9    -0.112887234127E+04   -0.43528E-02   -0.43528E-02  1320   0.330E-01 0.392E-04
CGA:  10    -0.112887459947E+04   -0.22582E-02   -0.22587E-02  1320   0.129E-01 0.697E-05
CGA:  11    -0.112887625399E+04   -0.16545E-02   -0.16543E-02  1320   0.106E-01 0.104E-04
CGA:  12    -0.112887740944E+04   -0.11554E-02   -0.11553E-02  1320   0.587E-02 0.161E-04
CGA:  13    -0.112887806610E+04   -0.65667E-03   -0.65665E-03  1320   0.432E-02 0.443E-05
CGA:  14    -0.112887860468E+04   -0.53857E-03   -0.53838E-03  1320   0.433E-02 0.703E-05
CGA:  15    -0.112887902753E+04   -0.42285E-03   -0.42288E-03  1320   0.246E-02 0.228E-05
CGA:  16    -0.112887926256E+04   -0.23503E-03   -0.23504E-03  1320   0.172E-02 0.260E-05
CGA:  17    -0.112887940983E+04   -0.14727E-03   -0.14732E-03  1320   0.981E-03 0.233E-05
CGA:  18    -0.112887953867E+04   -0.12884E-03   -0.12882E-03  1320   0.500E-03 0.991E-06
CGA:  19    -0.112887959547E+04   -0.56794E-04   -0.56806E-04  1320   0.368E-03-0.151E-05
CGA:  20    -0.112887964124E+04   -0.45777E-04   -0.45816E-04  1320   0.325E-03-0.209E-05
CGA:  21    -0.112887966839E+04   -0.27148E-04   -0.27120E-04  1320   0.207E-03-0.133E-05
CGA:  22    -0.112887968922E+04   -0.20831E-04   -0.20829E-04  1320   0.123E-03-0.568E-06
CGA:  23    -0.112887970539E+04   -0.16167E-04   -0.16167E-04  1320   0.107E-03 0.519E-08
CGA:  24    -0.112887971517E+04   -0.97783E-05   -0.97729E-05  1320   0.573E-04-0.385E-06
  26 F= -.11288797E+04 E0= -.11288582E+04  d E =-.104434E-03  mag=    19.9921
       N       E                     dE             d eps       ncg     rms          ort
SDA:   1    -0.107376805060E+04    0.55112E+02    0.00000E+00  1320   0.229E+03 0.000E+00
CGA:   2    -0.110222213210E+04   -0.28454E+02   -0.28631E+02  1320   0.148E+03-0.602E+01
CGA:   3    -0.111073156091E+04   -0.85094E+01   -0.96228E+01  1320   0.693E+02-0.988E+00
CGA:   4    -0.112079040315E+04   -0.10059E+02   -0.10413E+02  1320   0.714E+02-0.810E+01
CGA:   5    -0.112429667705E+04   -0.35063E+01   -0.34729E+01  1320   0.153E+02 0.706E-01
CGA:   6    -0.112514384585E+04   -0.84717E+00   -0.93014E+00  1320   0.108E+02-0.302E+00
CGA:   7    -0.112566081760E+04   -0.51697E+00   -0.49219E+00  1320   0.581E+01 0.299E+00
CGA:   8    -0.112600014435E+04   -0.33933E+00   -0.34686E+00  1320   0.297E+01-0.259E-01
CGA:   9    -0.112616994401E+04   -0.16980E+00   -0.17707E+00  1320   0.157E+01-0.203E-01
CGA:  10    -0.112624999079E+04   -0.80047E-01   -0.77542E-01  1320   0.773E+00 0.235E-01
CGA:  11    -0.112630972244E+04   -0.59732E-01   -0.60375E-01  1320   0.672E+00 0.115E-01
CGA:  12    -0.112635157602E+04   -0.41854E-01   -0.43281E-01  1320   0.301E+00 0.348E-02
CGA:  13    -0.112637299250E+04   -0.21416E-01   -0.21377E-01  1320   0.236E+00-0.279E-03
CGA:  14    -0.112638908278E+04   -0.16090E-01   -0.16400E-01  1320   0.150E+00 0.334E-02
CGA:  15    -0.112640227648E+04   -0.13194E-01   -0.13203E-01  1320   0.100E+00 0.166E-02
CGA:  16    -0.112640957715E+04   -0.73007E-02   -0.73023E-02  1320   0.586E-01 0.313E-04
CGA:  17    -0.112641431789E+04   -0.47407E-02   -0.47499E-02  1320   0.452E-01 0.504E-03
CGA:  18    -0.112641834459E+04   -0.40267E-02   -0.40267E-02  1320   0.347E-01-0.419E-04
CGA:  19    -0.112642129560E+04   -0.29510E-02   -0.29510E-02  1320   0.215E-01-0.599E-06
CGA:  20    -0.112642304368E+04   -0.17481E-02   -0.17493E-02  1320   0.142E-01 0.799E-04
CGA:  21    -0.112642418446E+04   -0.11408E-02   -0.11408E-02  1320   0.993E-02 0.789E-05
CGA:  22    -0.112642496601E+04   -0.78156E-03   -0.78173E-03  1320   0.648E-02 0.899E-05
CGA:  23    -0.112642555226E+04   -0.58625E-03   -0.58622E-03  1320   0.394E-02 0.153E-05
CGA:  24    -0.112642590628E+04   -0.35402E-03   -0.35404E-03  1320   0.356E-02-0.383E-05
CGA:  25    -0.112642619333E+04   -0.28705E-03   -0.28707E-03  1320   0.244E-02-0.121E-05
CGA:  26    -0.112642645169E+04   -0.25836E-03   -0.25840E-03  1320   0.216E-02-0.327E-05
CGA:  27    -0.112642661611E+04   -0.16441E-03   -0.16435E-03  1320   0.143E-02-0.334E-05
CGA:  28    -0.112642677611E+04   -0.16000E-03   -0.15999E-03  1320   0.134E-02-0.158E-06
CGA:  29    -0.112642686965E+04   -0.93547E-04   -0.93514E-04  1320   0.777E-03-0.530E-06
CGA:  30    -0.112642693926E+04   -0.69603E-04   -0.69607E-04  1320   0.541E-03-0.168E-05
CGA:  31    -0.112642699734E+04   -0.58082E-04   -0.58151E-04  1320   0.457E-03-0.353E-05
SDA:  32    -0.112642703112E+04   -0.33787E-04   -0.33751E-04  1320   0.288E-03-0.230E-05
CGA:  33    -0.112642704577E+04   -0.14646E-04   -0.14669E-04  1320   0.148E-03 0.384E-06
CGA:  34    -0.112642706607E+04   -0.20299E-04   -0.20231E-04  1320   0.189E-03 0.130E-05
CGA:  35    -0.112642709032E+04   -0.24247E-04   -0.24229E-04  1320   0.985E-04 0.383E-06
CGA:  36    -0.112642710338E+04   -0.13064E-04   -0.13071E-04  1320   0.844E-04-0.215E-06
CGA:  37    -0.112642711361E+04   -0.10232E-04   -0.10229E-04  1320   0.118E-03 0.792E-07
CGA:  38    -0.112642712387E+04   -0.10257E-04   -0.10256E-04  1320   0.750E-04-0.106E-06
CGA:  39    -0.112642713240E+04   -0.85325E-05   -0.85297E-05  1320   0.497E-04 0.103E-06
  27 F= -.11264271E+04 E0= -.11264012E+04  d E =0.245258E+01  mag=    19.9909
       N       E                     dE             d eps       ncg     rms          ort
SDA:   1    -0.108304642915E+04    0.43381E+02    0.00000E+00  1320   0.239E+03 0.000E+00
CGA:   2    -0.110856973125E+04   -0.25523E+02   -0.25871E+02  1320   0.918E+02-0.153E+02
CGA:   3    -0.111764222662E+04   -0.90725E+01   -0.90437E+01  1320   0.571E+02 0.176E+01
CGA:   4    -0.112372095920E+04   -0.60787E+01   -0.60903E+01  1320   0.562E+02-0.894E+00
CGA:   5    -0.112686260135E+04   -0.31416E+01   -0.31851E+01  1320   0.120E+02 0.545E+00
CGA:   6    -0.112786820697E+04   -0.10056E+01   -0.10059E+01  1320   0.455E+01 0.812E-02
CGA:   7    -0.112826774962E+04   -0.39954E+00   -0.39916E+00  1320   0.301E+01-0.252E-01
CGA:   8    -0.112843984435E+04   -0.17209E+00   -0.17429E+00  1320   0.132E+01-0.468E-02
CGA:   9    -0.112855047392E+04   -0.11063E+00   -0.11072E+00  1320   0.588E+00 0.485E-02
CGA:  10    -0.112860745715E+04   -0.56983E-01   -0.56963E-01  1320   0.367E+00 0.209E-02
CGA:  11    -0.112863886339E+04   -0.31406E-01   -0.31469E-01  1320   0.261E+00 0.434E-02
CGA:  12    -0.112866152004E+04   -0.22657E-01   -0.22652E-01  1320   0.171E+00-0.268E-03
CGA:  13    -0.112867730091E+04   -0.15781E-01   -0.15781E-01  1320   0.115E+00-0.169E-03
CGA:  14    -0.112868746865E+04   -0.10168E-01   -0.10170E-01  1320   0.773E-01 0.382E-03
CGA:  15    -0.112869536710E+04   -0.78984E-02   -0.78966E-02  1320   0.452E-01 0.895E-04
CGA:  16    -0.112870017082E+04   -0.48037E-02   -0.48010E-02  1320   0.338E-01 0.105E-03
CGA:  17    -0.112870371482E+04   -0.35440E-02   -0.35440E-02  1320   0.294E-01-0.274E-04
CGA:  18    -0.112870582486E+04   -0.21100E-02   -0.21091E-02  1320   0.125E-01-0.450E-04
CGA:  19    -0.112870709936E+04   -0.12745E-02   -0.12747E-02  1320   0.795E-02-0.240E-04
CGA:  20    -0.112870801446E+04   -0.91510E-03   -0.91543E-03  1320   0.488E-02-0.156E-04
CGA:  21    -0.112870857545E+04   -0.56099E-03   -0.56106E-03  1320   0.392E-02-0.454E-05
CGA:  22    -0.112870885428E+04   -0.27883E-03   -0.27870E-03  1320   0.252E-02-0.429E-05
CGA:  23    -0.112870915515E+04   -0.30087E-03   -0.30104E-03  1320   0.170E-02-0.626E-05
CGA:  24    -0.112870935845E+04   -0.20330E-03   -0.20333E-03  1320   0.141E-02-0.194E-05
CGA:  25    -0.112870948677E+04   -0.12832E-03   -0.12831E-03  1320   0.818E-03-0.130E-05
CGA:  26    -0.112870957298E+04   -0.86211E-04   -0.86202E-04  1320   0.714E-03 0.574E-06
CGA:  27    -0.112870964358E+04   -0.70598E-04   -0.70593E-04  1320   0.514E-03 0.197E-05
CGA:  28    -0.112870968954E+04   -0.45959E-04   -0.45975E-04  1320   0.326E-03 0.218E-05
CGA:  29    -0.112870971906E+04   -0.29525E-04   -0.29532E-04  1320   0.234E-03 0.119E-05
CGA:  30    -0.112870974914E+04   -0.30081E-04   -0.30033E-04  1320   0.147E-03 0.135E-05
CGA:  31    -0.112870976982E+04   -0.20672E-04   -0.20675E-04  1320   0.141E-03-0.189E-06
SDA:  32    -0.112870978008E+04   -0.10264E-04   -0.10250E-04  1320   0.103E-03-0.643E-06
CGA:  33    -0.112870978537E+04   -0.52933E-05   -0.52870E-05  1320   0.493E-04-0.217E-06
  28 F= -.11287098E+04 E0= -.11286857E+04  d E =-.228265E+01  mag=    19.9917
       N       E                     dE             d eps       ncg     rms          ort
SDA:   1    -0.112796088122E+04    0.74890E+00    0.00000E+00  1320   0.340E+01 0.000E+00
CGA:   2    -0.112842917574E+04   -0.46829E+00   -0.46859E+00  1320   0.124E+01-0.578E-02
CGA:   3    -0.112857623751E+04   -0.14706E+00   -0.14658E+00  1320   0.122E+01 0.173E-01
CGA:   4    -0.112871062622E+04   -0.13439E+00   -0.13451E+00  1320   0.621E+00-0.912E-02
CGA:   5    -0.112874363261E+04   -0.33006E-01   -0.33292E-01  1320   0.134E+00-0.208E-02
CGA:   6    -0.112875676978E+04   -0.13137E-01   -0.13137E-01  1320   0.809E-01 0.206E-04
CGA:   7    -0.112876287692E+04   -0.61071E-02   -0.61002E-02  1320   0.278E-01-0.467E-04
CGA:   8    -0.112876528911E+04   -0.24122E-02   -0.24125E-02  1320   0.126E-01 0.172E-04
CGA:   9    -0.112876659049E+04   -0.13014E-02   -0.13013E-02  1320   0.646E-02 0.813E-05
CGA:  10    -0.112876720209E+04   -0.61159E-03   -0.61159E-03  1320   0.336E-02 0.118E-05
CGA:  11    -0.112876756503E+04   -0.36295E-03   -0.36291E-03  1320   0.240E-02 0.385E-05
CGA:  12    -0.112876776013E+04   -0.19510E-03   -0.19509E-03  1320   0.167E-02 0.155E-05
CGA:  13    -0.112876792169E+04   -0.16156E-03   -0.16156E-03  1320   0.685E-03 0.378E-06
CGA:  14    -0.112876801551E+04   -0.93823E-04   -0.93807E-04  1320   0.581E-03 0.464E-06
CGA:  15    -0.112876809055E+04   -0.75042E-04   -0.75072E-04  1320   0.464E-03-0.104E-05
CGA:  16    -0.112876812886E+04   -0.38305E-04   -0.38289E-04  1320   0.279E-03-0.721E-06
CGA:  17    -0.112876816036E+04   -0.31503E-04   -0.31516E-04  1320   0.203E-03-0.922E-06
CGA:  18    -0.112876818016E+04   -0.19805E-04   -0.19803E-04  1320   0.147E-03-0.691E-06
CGA:  19    -0.112876819186E+04   -0.11699E-04   -0.11696E-04  1320   0.797E-04-0.137E-06
CGA:  20    -0.112876820258E+04   -0.10712E-04   -0.10708E-04  1320   0.614E-04 0.107E-06
CGA:  21    -0.112876820928E+04   -0.67033E-05   -0.67029E-05  1320   0.447E-04 0.312E-07
  29 F= -.11287682E+04 E0= -.11287448E+04  d E =-.584239E-01  mag=    19.9916
       N       E                     dE             d eps       ncg     rms          ort
SDA:   1    -0.112686646590E+04    0.19017E+01    0.00000E+00  1320   0.848E+01 0.000E+00
CGA:   2    -0.112794692806E+04   -0.10805E+01   -0.10830E+01  1320   0.516E+01-0.709E-01
CGA:   3    -0.112823810174E+04   -0.29117E+00   -0.30019E+00  1320   0.265E+01-0.379E-01
CGA:   4    -0.112866116181E+04   -0.42306E+00   -0.42394E+00  1320   0.177E+01-0.133E-01
CGA:   5    -0.112877811295E+04   -0.11695E+00   -0.11690E+00  1320   0.361E+00-0.103E-03
CGA:   6    -0.112881186046E+04   -0.33748E-01   -0.33771E-01  1320   0.215E+00 0.106E-02
CGA:   7    -0.112882779979E+04   -0.15939E-01   -0.15946E-01  1320   0.827E-01 0.672E-04
CGA:   8    -0.112883441442E+04   -0.66146E-02   -0.66085E-02  1320   0.318E-01-0.567E-04
CGA:   9    -0.112883784019E+04   -0.34258E-02   -0.34251E-02  1320   0.209E-01 0.535E-04
CGA:  10    -0.112883958553E+04   -0.17453E-02   -0.17452E-02  1320   0.837E-02-0.252E-06
CGA:  11    -0.112884039055E+04   -0.80502E-03   -0.80508E-03  1320   0.680E-02 0.120E-04
CGA:  12    -0.112884108047E+04   -0.68992E-03   -0.68990E-03  1320   0.347E-02 0.886E-05
CGA:  13    -0.112884140539E+04   -0.32492E-03   -0.32493E-03  1320   0.227E-02 0.136E-05
CGA:  14    -0.112884161999E+04   -0.21460E-03   -0.21461E-03  1320   0.148E-02 0.983E-06
CGA:  15    -0.112884181126E+04   -0.19127E-03   -0.19113E-03  1320   0.108E-02 0.425E-05
CGA:  16    -0.112884191171E+04   -0.10044E-03   -0.10046E-03  1320   0.788E-03 0.219E-05
CGA:  17    -0.112884198808E+04   -0.76370E-04   -0.76379E-04  1320   0.539E-03 0.191E-05
CGA:  18    -0.112884204553E+04   -0.57457E-04   -0.57444E-04  1320   0.326E-03 0.195E-05
CGA:  19    -0.112884207956E+04   -0.34030E-04   -0.34027E-04  1320   0.200E-03 0.865E-06
CGA:  20    -0.112884210168E+04   -0.22112E-04   -0.22113E-04  1320   0.185E-03-0.148E-06
CGA:  21    -0.112884211809E+04   -0.16416E-04   -0.16415E-04  1320   0.113E-03-0.233E-06
CGA:  22    -0.112884213097E+04   -0.12878E-04   -0.12873E-04  1320   0.862E-04 0.332E-06
CGA:  23    -0.112884214194E+04   -0.10966E-04   -0.10948E-04  1320   0.638E-04 0.654E-06
CGA:  24    -0.112884214834E+04   -0.64073E-05   -0.64073E-05  1320   0.527E-04 0.894E-08
  30 F= -.11288421E+04 E0= -.11288199E+04  d E =-.739391E-01  mag=    19.9911
       N       E                     dE             d eps       ncg     rms          ort
SDA:   1    -0.112855993552E+04    0.28221E+00    0.00000E+00  1320   0.134E+01 0.000E+00
CGA:   2    -0.112874515424E+04   -0.18522E+00   -0.18528E+00  1320   0.481E+00-0.121E-02
CGA:   3    -0.112880304294E+04   -0.57889E-01   -0.57785E-01  1320   0.579E+00 0.400E-02
CGA:   4    -0.112885510101E+04   -0.52058E-01   -0.52003E-01  1320   0.245E+00-0.112E-02
CGA:   5    -0.112887114952E+04   -0.16049E-01   -0.16030E-01  1320   0.591E-01 0.652E-04
CGA:   6    -0.112887609077E+04   -0.49413E-02   -0.49422E-02  1320   0.329E-01 0.249E-04
CGA:   7    -0.112887901797E+04   -0.29272E-02   -0.29269E-02  1320   0.102E-01-0.306E-05
CGA:   8    -0.112887999131E+04   -0.97333E-03   -0.97334E-03  1320   0.516E-02-0.464E-05
CGA:   9    -0.112888047896E+04   -0.48765E-03   -0.48759E-03  1320   0.246E-02-0.797E-05
CGA:  10    -0.112888071029E+04   -0.23133E-03   -0.23132E-03  1320   0.164E-02-0.973E-06
CGA:  11    -0.112888084644E+04   -0.13615E-03   -0.13616E-03  1320   0.985E-03 0.551E-06
CGA:  12    -0.112888094876E+04   -0.10233E-03   -0.10232E-03  1320   0.506E-03 0.126E-05
CGA:  13    -0.112888100989E+04   -0.61127E-04   -0.61108E-04  1320   0.290E-03 0.854E-06
CGA:  14    -0.112888104246E+04   -0.32568E-04   -0.32554E-04  1320   0.255E-03 0.112E-05
[...]
CGA:   2    -0.112848396422E+04   -0.55132E+00   -0.55101E+00  1320   0.250E+01 0.574E-02
CGA:   3    -0.112865544303E+04   -0.17148E+00   -0.16820E+00  1320   0.154E+01 0.367E-02
CGA:   4    -0.112881828813E+04   -0.16285E+00   -0.16279E+00  1320   0.106E+01 0.744E-02
CGA:   5    -0.112888994841E+04   -0.71660E-01   -0.71572E-01  1320   0.283E+00-0.158E-03
CGA:   6    -0.112891470165E+04   -0.24753E-01   -0.24745E-01  1320   0.126E+00-0.233E-03
CGA:   7    -0.112892841686E+04   -0.13715E-01   -0.13714E-01  1320   0.552E-01 0.816E-04
CGA:   8    -0.112893239961E+04   -0.39827E-02   -0.39813E-02  1320   0.197E-01-0.640E-05
CGA:   9    -0.112893435264E+04   -0.19530E-02   -0.19530E-02  1320   0.112E-01 0.241E-05
CGA:  10    -0.112893539098E+04   -0.10383E-02   -0.10384E-02  1320   0.622E-02-0.888E-07
CGA:  11    -0.112893592640E+04   -0.53542E-03   -0.53535E-03  1320   0.469E-02 0.128E-06
CGA:  12    -0.112893631806E+04   -0.39166E-03   -0.39176E-03  1320   0.298E-02 0.624E-05
CGA:  13    -0.112893667808E+04   -0.36002E-03   -0.35994E-03  1320   0.140E-02 0.293E-05
CGA:  14    -0.112893685880E+04   -0.18072E-03   -0.18063E-03  1320   0.138E-02 0.298E-05
CGA:  15    -0.112893701284E+04   -0.15404E-03   -0.15397E-03  1320   0.801E-03 0.584E-05
CGA:  16    -0.112893710574E+04   -0.92900E-04   -0.92888E-04  1320   0.679E-03 0.814E-06
CGA:  17    -0.112893716491E+04   -0.59173E-04   -0.59172E-04  1320   0.432E-03-0.200E-07
CGA:  18    -0.112893720115E+04   -0.36234E-04   -0.36255E-04  1320   0.267E-03 0.113E-05
CGA:  19    -0.112893722660E+04   -0.25450E-04   -0.25455E-04  1320   0.160E-03 0.122E-05
CGA:  20    -0.112893724328E+04   -0.16686E-04   -0.16684E-04  1320   0.121E-03 0.371E-06
CGA:  21    -0.112893725547E+04   -0.12183E-04   -0.12183E-04  1320   0.656E-04-0.506E-06
CGA:  22    -0.112893726619E+04   -0.10726E-04   -0.10779E-04  1320   0.528E-04-0.823E-06
CGA:  23    -0.112893727128E+04   -0.50934E-05   -0.50918E-05  1320   0.465E-04-0.261E-06
  96 F= -.11289373E+04 E0= -.11289128E+04  d E =-.999661E-03  mag=    19.9846
       N       E                     dE             d eps       ncg     rms          ort
SDA:   1    -0.112856321760E+04    0.37405E+00    0.00000E+00  1320   0.124E+01 0.000E+00
CGA:   2    -0.112879235143E+04   -0.22913E+00   -0.22914E+00  1320   0.660E+00-0.263E-04
CGA:   3    -0.112886342003E+04   -0.71069E-01   -0.71060E-01  1320   0.588E+00 0.209E-02
CGA:   4    -0.112891683609E+04   -0.53416E-01   -0.53383E-01  1320   0.146E+00-0.753E-03
CGA:   5    -0.112892857961E+04   -0.11744E-01   -0.11741E-01  1320   0.948E-01-0.118E-04
CGA:   6    -0.112893541857E+04   -0.68390E-02   -0.68336E-02  1320   0.455E-01 0.412E-05
CGA:   7    -0.112893933461E+04   -0.39160E-02   -0.39183E-02  1320   0.108E-01 0.583E-04
CGA:   8    -0.112894041528E+04   -0.10807E-02   -0.10807E-02  1320   0.558E-02 0.142E-04
CGA:   9    -0.112894094869E+04   -0.53340E-03   -0.53341E-03  1320   0.355E-02 0.364E-05
CGA:  10    -0.112894125387E+04   -0.30518E-03   -0.30521E-03  1320   0.188E-02 0.239E-05
CGA:  11    -0.112894143436E+04   -0.18049E-03   -0.18050E-03  1320   0.151E-02 0.853E-06
CGA:  12    -0.112894157570E+04   -0.14133E-03   -0.14133E-03  1320   0.102E-02-0.835E-06
CGA:  13    -0.112894166225E+04   -0.86552E-04   -0.86557E-04  1320   0.526E-03 0.440E-06
CGA:  14    -0.112894173111E+04   -0.68866E-04   -0.68851E-04  1320   0.512E-03 0.435E-06
CGA:  15    -0.112894179006E+04   -0.58942E-04   -0.58959E-04  1320   0.326E-03-0.106E-05
CGA:  16    -0.112894182333E+04   -0.33270E-04   -0.33271E-04  1320   0.232E-03-0.104E-05
CGA:  17    -0.112894184377E+04   -0.20442E-04   -0.20436E-04  1320   0.183E-03-0.490E-06
CGA:  18    -0.112894185950E+04   -0.15726E-04   -0.15712E-04  1320   0.903E-04-0.945E-06
CGA:  19    -0.112894186939E+04   -0.98941E-05   -0.99046E-05  1320   0.548E-04-0.105E-05
  97 F= -.11289419E+04 E0= -.11289175E+04  d E =-.459811E-02  mag=    19.9850
       N       E                     dE             d eps       ncg     rms          ort
SDA:   1    -0.112888208420E+04    0.59775E-01    0.00000E+00  1320   0.241E+00 0.000E+00
CGA:   2    -0.112890711588E+04   -0.25032E-01   -0.25035E-01  1320   0.284E+00-0.117E-02
CGA:   3    -0.112892613213E+04   -0.19016E-01   -0.19082E-01  1320   0.769E-01-0.107E-04
CGA:   4    -0.112893367700E+04   -0.75449E-02   -0.75450E-02  1320   0.659E-01 0.254E-04
CGA:   5    -0.112893928863E+04   -0.56116E-02   -0.56117E-02  1320   0.152E-01 0.451E-05
CGA:   6    -0.112894086996E+04   -0.15813E-02   -0.15813E-02  1320   0.964E-02 0.432E-05
CGA:   7    -0.112894172648E+04   -0.85651E-03   -0.85651E-03  1320   0.400E-02-0.468E-06
CGA:   8    -0.112894200025E+04   -0.27378E-03   -0.27392E-03  1320   0.131E-02 0.230E-05
CGA:   9    -0.112894211185E+04   -0.11159E-03   -0.11164E-03  1320   0.791E-03 0.367E-05
CGA:  10    -0.112894217961E+04   -0.67769E-04   -0.67782E-04  1320   0.546E-03 0.128E-05
CGA:  11    -0.112894222691E+04   -0.47291E-04   -0.47293E-04  1320   0.248E-03 0.144E-06
CGA:  12    -0.112894226053E+04   -0.33628E-04   -0.33584E-04  1320   0.197E-03 0.115E-05
CGA:  13    -0.112894228752E+04   -0.26983E-04   -0.26975E-04  1320   0.135E-03 0.233E-06
CGA:  14    -0.112894230042E+04   -0.12903E-04   -0.12900E-04  1320   0.122E-03-0.507E-06
CGA:  15    -0.112894231201E+04   -0.11587E-04   -0.11585E-04  1320   0.104E-03-0.458E-06
CGA:  16    -0.112894232210E+04   -0.10093E-04   -0.10092E-04  1320   0.557E-04-0.374E-06
CGA:  17    -0.112894232767E+04   -0.55732E-05   -0.55735E-05  1320   0.326E-04-0.231E-06
  98 F= -.11289423E+04 E0= -.11289179E+04  d E =-.458283E-03  mag=    19.9845
       N       E                     dE             d eps       ncg     rms          ort
SDA:   1    -0.112871721917E+04    0.22510E+00    0.00000E+00  1320   0.720E+00 0.000E+00
CGA:   2    -0.112885957406E+04   -0.14235E+00   -0.14237E+00  1320   0.514E+00-0.112E-03
CGA:   3    -0.112889426864E+04   -0.34695E-01   -0.34772E-01  1320   0.284E+00-0.176E-03
CGA:   4    -0.112892316557E+04   -0.28897E-01   -0.28897E-01  1320   0.158E+00 0.329E-04
CGA:   5    -0.112893320589E+04   -0.10040E-01   -0.10066E-01  1320   0.573E-01-0.704E-04
CGA:   6    -0.112893817657E+04   -0.49707E-02   -0.49703E-02  1320   0.339E-01-0.889E-05
CGA:   7    -0.112894115528E+04   -0.29787E-02   -0.29789E-02  1320   0.104E-01 0.487E-05
CGA:   8    -0.112894195485E+04   -0.79957E-03   -0.79932E-03  1320   0.337E-02-0.972E-06
CGA:   9    -0.112894236286E+04   -0.40801E-03   -0.40791E-03  1320   0.278E-02 0.294E-05
CGA:  10    -0.112894257523E+04   -0.21237E-03   -0.21233E-03  1320   0.131E-02-0.942E-07
CGA:  11    -0.112894269223E+04   -0.11701E-03   -0.11703E-03  1320   0.109E-02 0.259E-05
CGA:  12    -0.112894279927E+04   -0.10703E-03   -0.10703E-03  1320   0.693E-03 0.346E-05
CGA:  13    -0.112894288542E+04   -0.86156E-04   -0.86129E-04  1320   0.350E-03 0.106E-05
CGA:  14    -0.112894293195E+04   -0.46532E-04   -0.46530E-04  1320   0.479E-03 0.279E-07
CGA:  15    -0.112894297918E+04   -0.47225E-04   -0.47225E-04  1320   0.259E-03 0.114E-06
CGA:  16    -0.112894300509E+04   -0.25914E-04   -0.25914E-04  1320   0.209E-03 0.244E-06
CGA:  17    -0.112894302186E+04   -0.16773E-04   -0.16794E-04  1320   0.125E-03 0.958E-06
CGA:  18    -0.112894303537E+04   -0.13506E-04   -0.13498E-04  1320   0.766E-04 0.114E-05
CGA:  19    -0.112894304285E+04   -0.74795E-05   -0.74778E-05  1320   0.454E-04-0.462E-06
  99 F= -.11289430E+04 E0= -.11289186E+04  d E =-.715178E-03  mag=    19.9836
       N       E                     dE             d eps       ncg     rms          ort
SDA:   1    -0.111597298234E+04    0.12970E+02    0.00000E+00  1320   0.423E+02 0.000E+00
CGA:   2    -0.112354958956E+04   -0.75766E+01   -0.76384E+01  1320   0.425E+02-0.674E+00
CGA:   3    -0.112578775174E+04   -0.22382E+01   -0.24015E+01  1320   0.181E+02-0.102E+01
CGA:   4    -0.112746971412E+04   -0.16820E+01   -0.16760E+01  1320   0.122E+02-0.290E+00
CGA:   5    -0.112830153457E+04   -0.83182E+00   -0.83856E+00  1320   0.344E+01 0.724E-02
CGA:   6    -0.112865025422E+04   -0.34872E+00   -0.34872E+00  1320   0.161E+01 0.125E-02
CGA:   7    -0.112882822244E+04   -0.17797E+00   -0.17811E+00  1320   0.653E+00-0.852E-02
CGA:   8    -0.112886559852E+04   -0.37376E-01   -0.37540E-01  1320   0.283E+00-0.853E-03
CGA:   9    -0.112889080298E+04   -0.25204E-01   -0.25229E-01  1320   0.165E+00 0.993E-03
CGA:  10    -0.112890447859E+04   -0.13676E-01   -0.13693E-01  1320   0.935E-01 0.336E-03
CGA:  11    -0.112891382617E+04   -0.93476E-02   -0.93469E-02  1320   0.564E-01 0.215E-03
CGA:  12    -0.112892008133E+04   -0.62552E-02   -0.62540E-02  1320   0.431E-01 0.780E-04
CGA:  13    -0.112892460420E+04   -0.45229E-02   -0.45207E-02  1320   0.279E-01 0.219E-03
CGA:  14    -0.112892742687E+04   -0.28227E-02   -0.28226E-02  1320   0.253E-01 0.373E-04
CGA:  15    -0.112892970218E+04   -0.22753E-02   -0.22761E-02  1320   0.192E-01 0.386E-04
CGA:  16    -0.112893150728E+04   -0.18051E-02   -0.18051E-02  1320   0.116E-01 0.170E-05
CGA:  17    -0.112893301479E+04   -0.15075E-02   -0.15062E-02  1320   0.652E-02 0.337E-04
CGA:  18    -0.112893371084E+04   -0.69605E-03   -0.69599E-03  1320   0.445E-02 0.757E-05
CGA:  19    -0.112893413313E+04   -0.42229E-03   -0.42230E-03  1320   0.355E-02 0.280E-05
CGA:  20    -0.112893441465E+04   -0.28152E-03   -0.28143E-03  1320   0.200E-02-0.180E-05
CGA:  21    -0.112893462838E+04   -0.21372E-03   -0.21376E-03  1320   0.134E-02-0.495E-05
CGA:  22    -0.112893478867E+04   -0.16029E-03   -0.16045E-03  1320   0.106E-02-0.743E-05
CGA:  23    -0.112893489223E+04   -0.10356E-03   -0.10355E-03  1320   0.648E-03-0.317E-05
CGA:  24    -0.112893495966E+04   -0.67428E-04   -0.67429E-04  1320   0.520E-03-0.412E-06
CGA:  25    -0.112893500383E+04   -0.44169E-04   -0.44178E-04  1320   0.316E-03 0.620E-06
CGA:  26    -0.112893503503E+04   -0.31209E-04   -0.31210E-04  1320   0.235E-03 0.104E-05
CGA:  27    -0.112893505520E+04   -0.20170E-04   -0.20181E-04  1320   0.119E-03 0.778E-06
CGA:  28    -0.112893507061E+04   -0.15409E-04   -0.15419E-04  1320   0.884E-04-0.355E-06
CGA:  29    -0.112893508167E+04   -0.11056E-04   -0.11067E-04  1320   0.804E-04-0.460E-06
CGA:  30    -0.112893508787E+04   -0.61984E-05   -0.62047E-05  1320   0.570E-04 0.240E-06
 100 F= -.11289351E+04 E0= -.11289106E+04  d E =0.795498E-02  mag=    19.9789
       N       E                     dE             d eps       ncg     rms          ort
SDA:   1    -0.112173839577E+04    0.71967E+01    0.00000E+00  1320   0.224E+02 0.000E+00
CGA:   2    -0.112627417142E+04   -0.45358E+01   -0.45386E+01  1320   0.131E+02-0.253E-01
CGA:   3    -0.112749068839E+04   -0.12165E+01   -0.12185E+01  1320   0.998E+01 0.524E-01
CGA:   4    -0.112842144202E+04   -0.93075E+00   -0.92826E+00  1320   0.398E+01-0.710E-01
CGA:   5    -0.112864633414E+04   -0.22489E+00   -0.22206E+00  1320   0.155E+01 0.244E-01
CGA:   6    -0.112880383023E+04   -0.15750E+00   -0.15752E+00  1320   0.101E+01 0.101E-01
CGA:   7    -0.112887561477E+04   -0.71785E-01   -0.71660E-01  1320   0.255E+00-0.123E-03
CGA:   8    -0.112889628676E+04   -0.20672E-01   -0.20684E-01  1320   0.125E+00 0.178E-03
CGA:   9    -0.112890872176E+04   -0.12435E-01   -0.12435E-01  1320   0.788E-01-0.170E-03
CGA:  10    -0.112891506750E+04   -0.63457E-02   -0.63508E-02  1320   0.412E-01 0.867E-04
CGA:  11    -0.112891842921E+04   -0.33617E-02   -0.33630E-02  1320   0.326E-01 0.381E-04
CGA:  12    -0.112892195322E+04   -0.35240E-02   -0.35233E-02  1320   0.186E-01 0.559E-04
CGA:  13    -0.112892397676E+04   -0.20235E-02   -0.20231E-02  1320   0.992E-02 0.290E-04
CGA:  14    -0.112892534683E+04   -0.13701E-02   -0.13698E-02  1320   0.138E-01 0.414E-05
CGA:  15    -0.112892643724E+04   -0.10904E-02   -0.10907E-02  1320   0.746E-02-0.217E-05
CGA:  16    -0.112892715161E+04   -0.71437E-03   -0.71444E-03  1320   0.524E-02 0.843E-05
CGA:  17    -0.112892765705E+04   -0.50544E-03   -0.50544E-03  1320   0.332E-02 0.213E-05
CGA:  18    -0.112892804497E+04   -0.38792E-03   -0.38781E-03  1320   0.221E-02 0.554E-05
CGA:  19    -0.112892823420E+04   -0.18922E-03   -0.18921E-03  1320   0.140E-02-0.947E-06
CGA:  20    -0.112892838120E+04   -0.14700E-03   -0.14703E-03  1320   0.130E-02-0.456E-05
CGA:  21    -0.112892850517E+04   -0.12398E-03   -0.12395E-03  1320   0.842E-03-0.519E-05
CGA:  22    -0.112892857453E+04   -0.69359E-04   -0.69326E-04  1320   0.516E-03-0.196E-05
CGA:  23    -0.112892864680E+04   -0.72270E-04   -0.72283E-04  1320   0.374E-03-0.322E-06
CGA:  24    -0.112892868751E+04   -0.40710E-04   -0.40703E-04  1320   0.287E-03 0.864E-06
CGA:  25    -0.112892870899E+04   -0.21472E-04   -0.21484E-04  1320   0.172E-03 0.495E-06
CGA:  26    -0.112892872671E+04   -0.17726E-04   -0.17724E-04  1320   0.119E-03 0.524E-06
CGA:  27    -0.112892873894E+04   -0.12226E-04   -0.12225E-04  1320   0.655E-04 0.537E-06
CGA:  28    -0.112892874580E+04   -0.68626E-05   -0.68598E-05  1320   0.523E-04 0.572E-06
 101 F= -.11289287E+04 E0= -.11289042E+04  d E =0.634207E-02  mag=    19.9813
       N       E                     dE             d eps       ncg     rms          ort
SDA:   1    -0.112331386220E+04    0.56149E+01    0.00000E+00  1320   0.187E+02 0.000E+00
CGA:   2    -0.112679200380E+04   -0.34781E+01   -0.34818E+01  1320   0.131E+02-0.373E-01
CGA:   3    -0.112755499678E+04   -0.76299E+00   -0.78113E+00  1320   0.826E+01-0.800E-01
CGA:   4    -0.112848599784E+04   -0.93100E+00   -0.93243E+00  1320   0.293E+01-0.781E-01
CGA:   5    -0.112871365193E+04   -0.22765E+00   -0.22906E+00  1320   0.128E+01 0.132E-01
CGA:   6    -0.112884119541E+04   -0.12754E+00   -0.12750E+00  1320   0.800E+00-0.880E-02
CGA:   7    -0.112889487190E+04   -0.53676E-01   -0.53949E-01  1320   0.268E+00 0.213E-03
CGA:   8    -0.112891272557E+04   -0.17854E-01   -0.17837E-01  1320   0.102E+00 0.168E-04
CGA:   9    -0.112892369898E+04   -0.10973E-01   -0.10971E-01  1320   0.656E-01 0.140E-03
CGA:  10    -0.112892924313E+04   -0.55441E-02   -0.55456E-02  1320   0.315E-01 0.343E-04
CGA:  11    -0.112893233798E+04   -0.30949E-02   -0.30949E-02  1320   0.283E-01 0.819E-05
CGA:  12    -0.112893499185E+04   -0.26539E-02   -0.26539E-02  1320   0.176E-01 0.339E-05
CGA:  13    -0.112893668659E+04   -0.16947E-02   -0.16948E-02  1320   0.114E-01 0.315E-04
CGA:  14    -0.112893780997E+04   -0.11234E-02   -0.11234E-02  1320   0.103E-01 0.113E-04
CGA:  15    -0.112893893854E+04   -0.11286E-02   -0.11284E-02  1320   0.601E-02 0.901E-05
CGA:  16    -0.112893967643E+04   -0.73789E-03   -0.73777E-03  1320   0.563E-02 0.358E-05
CGA:  17    -0.112894007228E+04   -0.39584E-03   -0.39607E-03  1320   0.288E-02 0.266E-06
CGA:  18    -0.112894040796E+04   -0.33568E-03   -0.33565E-03  1320   0.184E-02 0.999E-06
CGA:  19    -0.112894058061E+04   -0.17266E-03   -0.17267E-03  1320   0.119E-02 0.244E-05
CGA:  20    -0.112894071036E+04   -0.12975E-03   -0.12972E-03  1320   0.842E-03 0.332E-05
CGA:  21    -0.112894078263E+04   -0.72271E-04   -0.72277E-04  1320   0.687E-03 0.184E-06
CGA:  22    -0.112894085395E+04   -0.71315E-04   -0.71329E-04  1320   0.387E-03-0.247E-05
CGA:  23    -0.112894089891E+04   -0.44958E-04   -0.44982E-04  1320   0.277E-03-0.145E-05
CGA:  24    -0.112894092794E+04   -0.29033E-04   -0.29044E-04  1320   0.235E-03-0.174E-05
CGA:  25    -0.112894094594E+04   -0.17997E-04   -0.17983E-04  1320   0.132E-03-0.659E-06
CGA:  26    -0.112894096137E+04   -0.15428E-04   -0.15422E-04  1320   0.709E-04 0.296E-06
CGA:  27    -0.112894096889E+04   -0.75232E-05   -0.75254E-05  1320   0.610E-04-0.332E-06
 102 F= -.11289410E+04 E0= -.11289164E+04  d E =-.122231E-01  mag=    19.9830
       N       E                     dE             d eps       ncg     rms          ort
SDA:   1    -0.112775756816E+04    0.11834E+01    0.00000E+00  1320   0.401E+01 0.000E+00
CGA:   2    -0.112843972473E+04   -0.68216E+00   -0.68189E+00  1320   0.236E+01 0.390E-02
CGA:   3    -0.112865674533E+04   -0.21702E+00   -0.21678E+00  1320   0.184E+01-0.834E-02
CGA:   4    -0.112884507549E+04   -0.18833E+00   -0.18833E+00  1320   0.805E+00 0.592E-02
CGA:   5    -0.112889095771E+04   -0.45882E-01   -0.46159E-01  1320   0.271E+00-0.155E-02
CGA:   6    -0.112891434022E+04   -0.23383E-01   -0.23349E-01  1320   0.160E+00-0.804E-03
CGA:   7    -0.112892850882E+04   -0.14169E-01   -0.14175E-01  1320   0.546E-01 0.221E-03
CGA:   8    -0.112893225774E+04   -0.37489E-02   -0.37470E-02  1320   0.206E-01 0.655E-05
CGA:   9    -0.112893455607E+04   -0.22983E-02   -0.22982E-02  1320   0.108E-01 0.454E-05
CGA:  10    -0.112893571789E+04   -0.11618E-02   -0.11618E-02  1320   0.606E-02 0.184E-05
CGA:  11    -0.112893622634E+04   -0.50845E-03   -0.50854E-03  1320   0.482E-02 0.470E-05
CGA:  12    -0.112893664204E+04   -0.41570E-03   -0.41570E-03  1320   0.310E-02 0.290E-05
CGA:  13    -0.112893697854E+04   -0.33650E-03   -0.33646E-03  1320   0.140E-02 0.283E-05
CGA:  14    -0.112893715176E+04   -0.17322E-03   -0.17318E-03  1320   0.138E-02 0.182E-05
CGA:  15    -0.112893731751E+04   -0.16575E-03   -0.16566E-03  1320   0.104E-02 0.411E-05
CGA:  16    -0.112893740590E+04   -0.88394E-04   -0.88406E-04  1320   0.573E-03 0.476E-06
CGA:  17    -0.112893746646E+04   -0.60556E-04   -0.60558E-04  1320   0.507E-03-0.443E-06
CGA:  18    -0.112893750857E+04   -0.42115E-04   -0.42117E-04  1320   0.290E-03 0.152E-06
CGA:  19    -0.112893753317E+04   -0.24595E-04   -0.24599E-04  1320   0.143E-03 0.242E-06
CGA:  20    -0.112893755115E+04   -0.17986E-04   -0.17991E-04  1320   0.133E-03-0.197E-06
CGA:  21    -0.112893756511E+04   -0.13956E-04   -0.13956E-04  1320   0.629E-04 0.318E-07
CGA:  22    -0.112893757336E+04   -0.82500E-05   -0.82550E-05  1320   0.693E-04-0.154E-06
 103 F= -.11289376E+04 E0= -.11289130E+04  d E =0.339553E-02  mag=    19.9829
       N       E                     dE             d eps       ncg     rms          ort
SDA:   1    -0.112781704492E+04    0.11205E+01    0.00000E+00  1320   0.390E+01 0.000E+00
CGA:   2    -0.112846565018E+04   -0.64861E+00   -0.64804E+00  1320   0.294E+01 0.797E-02
CGA:   3    -0.112865607213E+04   -0.19042E+00   -0.19024E+00  1320   0.160E+01-0.102E-02
CGA:   4    -0.112882599711E+04   -0.16992E+00   -0.16987E+00  1320   0.111E+01 0.677E-02
CGA:   5    -0.112889481995E+04   -0.68823E-01   -0.67812E-01  1320   0.243E+00 0.447E-02
CGA:   6    -0.112892141614E+04   -0.26596E-01   -0.26593E-01  1320   0.166E+00 0.263E-03
CGA:   7    -0.112893580758E+04   -0.14391E-01   -0.14387E-01  1320   0.564E-01-0.108E-03
CGA:   8    -0.112893941765E+04   -0.36101E-02   -0.36123E-02  1320   0.196E-01-0.224E-05
CGA:   9    -0.112894175678E+04   -0.23391E-02   -0.23391E-02  1320   0.146E-01 0.298E-05
CGA:  10    -0.112894268733E+04   -0.93055E-03   -0.93102E-03  1320   0.697E-02 0.373E-05
CGA:  11    -0.112894337450E+04   -0.68717E-03   -0.68717E-03  1320   0.434E-02 0.639E-05
CGA:  12    -0.112894394363E+04   -0.56913E-03   -0.56883E-03  1320   0.274E-02 0.863E-05
CGA:  13    -0.112894425599E+04   -0.31236E-03   -0.31232E-03  1320   0.192E-02 0.250E-05
CGA:  14    -0.112894444554E+04   -0.18955E-03   -0.18955E-03  1320   0.182E-02 0.499E-06
CGA:  15    -0.112894461301E+04   -0.16746E-03   -0.16745E-03  1320   0.139E-02-0.210E-05
CGA:  16    -0.112894474610E+04   -0.13309E-03   -0.13309E-03  1320   0.702E-03-0.281E-06
CGA:  17    -0.112894482628E+04   -0.80181E-04   -0.80146E-04  1320   0.519E-03 0.234E-05
CGA:  18    -0.112894487887E+04   -0.52593E-04   -0.52592E-04  1320   0.334E-03 0.112E-05
CGA:  19    -0.112894490965E+04   -0.30774E-04   -0.30773E-04  1320   0.203E-03-0.552E-07
CGA:  20    -0.112894492824E+04   -0.18588E-04   -0.18583E-04  1320   0.158E-03-0.609E-06
CGA:  21    -0.112894494465E+04   -0.16410E-04   -0.16416E-04  1320   0.124E-03-0.126E-05
CGA:  22    -0.112894495456E+04   -0.99159E-05   -0.99074E-05  1320   0.673E-04-0.451E-06
 104 F= -.11289450E+04 E0= -.11289204E+04  d E =-.738120E-02  mag=    19.9820
