       N       E                     dE             d eps       ncg     rms          ort
DAV:   1     0.657348473059E+04    0.65735E+04   -0.29686E+05  1296   0.174E+03
DAV:   2     0.406906044156E+03   -0.61666E+04   -0.59161E+04  1296   0.512E+02
DAV:   3    -0.486239744723E+03   -0.89315E+03   -0.82679E+03  1296   0.187E+02
DAV:   4    -0.558110705900E+03   -0.71871E+02   -0.70410E+02  1296   0.501E+01
DAV:   5    -0.560832966884E+03   -0.27223E+01   -0.27077E+01  1296   0.981E+00
SDA:   6    -0.560785823476E+03    0.47143E-01   -0.27077E+01  1296   0.231E+00 0.000E+00
CGA:   7    -0.560822636193E+03   -0.36813E-01   -0.36801E-01  1296   0.277E+00-0.177E-03
CGA:   8    -0.560845195272E+03   -0.22559E-01   -0.22331E-01  1296   0.105E+00 0.161E-02
CGA:   9    -0.560859765317E+03   -0.14570E-01   -0.14583E-01  1296   0.722E-01 0.336E-04
CGA:  10    -0.560869771373E+03   -0.10006E-01   -0.10001E-01  1296   0.514E-01-0.292E-04
CGA:  11    -0.560878373914E+03   -0.86025E-02   -0.86002E-02  1296   0.508E-01-0.122E-03
CGA:  12    -0.560885344439E+03   -0.69705E-02   -0.69459E-02  1296   0.396E-01-0.217E-03
CGA:  13    -0.560889629851E+03   -0.42854E-02   -0.42986E-02  1296   0.265E-01-0.192E-03
CGA:  14    -0.560893033497E+03   -0.34036E-02   -0.33957E-02  1296   0.143E-01-0.117E-03
CGA:  15    -0.560894816218E+03   -0.17827E-02   -0.17795E-02  1296   0.984E-02-0.569E-04
CGA:  16    -0.560895744536E+03   -0.92832E-03   -0.92495E-03  1296   0.592E-02-0.238E-04
CGA:  17    -0.560896462285E+03   -0.71775E-03   -0.71684E-03  1296   0.271E-02-0.228E-04
CGA:  18    -0.560896929426E+03   -0.46714E-03   -0.46723E-03  1296   0.196E-02-0.187E-04
CGA:  19    -0.560897167657E+03   -0.23823E-03   -0.23755E-03  1296   0.127E-02-0.128E-04
CGA:  20    -0.560897327598E+03   -0.15994E-03   -0.15972E-03  1296   0.988E-03-0.583E-05
CGA:  21    -0.560897422005E+03   -0.94407E-04   -0.94484E-04  1296   0.491E-03 0.168E-06
CGA:  22    -0.560897486545E+03   -0.64540E-04   -0.64704E-04  1296   0.294E-03 0.576E-05
CGA:  23    -0.560897524225E+03   -0.37679E-04   -0.37927E-04  1296   0.191E-03 0.771E-05
CGA:  24    -0.560897547732E+03   -0.23507E-04   -0.23761E-04  1296   0.162E-03 0.714E-05
CGA:  25    -0.560897569326E+03   -0.21594E-04   -0.21777E-04  1296   0.883E-04 0.703E-05
CGA:  26    -0.560897585388E+03   -0.16062E-04   -0.15967E-04  1296   0.798E-04 0.510E-05
CGA:  27    -0.560897596145E+03   -0.10757E-04   -0.10853E-04  1296   0.761E-04 0.356E-05
CGA:  28    -0.560897603789E+03   -0.76439E-05   -0.78337E-05  1296   0.373E-04 0.344E-05
   1 F= -.56089760E+03 E0= -.56088709E+03  d E =-.560898E+03  mag=     8.0000
