       N       E                     dE             d eps       ncg     rms          ort
DAV:   1     0.857108082803E+04    0.85711E+04   -0.35776E+05  1728   0.172E+03
DAV:   2     0.603535803506E+03   -0.79675E+04   -0.74332E+04  1728   0.497E+02
DAV:   3    -0.612059330757E+03   -0.12156E+04   -0.11642E+04  1728   0.191E+02
DAV:   4    -0.694774867874E+03   -0.82716E+02   -0.79983E+02  1728   0.464E+01
DAV:   5    -0.699765511933E+03   -0.49906E+01   -0.49405E+01  1728   0.913E+00
SDA:   6    -0.161735845549E+03    0.53803E+03   -0.49405E+01  1728   0.368E+04 0.000E+00
CGA:   7    -0.506862912239E+03   -0.34513E+03   -0.42431E+03  1728   0.378E+03-0.171E+02
CGA:   8    -0.541830277955E+03   -0.34967E+02   -0.43733E+02  1728   0.135E+03 0.158E+02
CGA:   9    -0.554763893038E+03   -0.12934E+02   -0.14921E+02  1728   0.695E+02-0.858E+01
CGA:  10    -0.561209459639E+03   -0.64456E+01   -0.67718E+01  1728   0.749E+02-0.286E+02
CGA:  11    -0.567592400488E+03   -0.63829E+01   -0.53507E+01  1728   0.335E+02-0.540E+01
CGA:  12    -0.569895666754E+03   -0.23033E+01   -0.12667E+01  1728   0.237E+02 0.329E+02
CGA:  13    -0.570621748538E+03   -0.72608E+00   -0.16548E+01  1728   0.411E+02-0.151E+02
CGA:  14    -0.570953009766E+03   -0.33126E+00   -0.29110E+01  1728   0.242E+02-0.102E+02
CGA:  15    -0.572383750101E+03   -0.14307E+01   -0.15743E+01  1728   0.219E+02-0.107E+02
CGA:  16    -0.573335642610E+03   -0.95189E+00   -0.55107E+00  1728   0.192E+02 0.524E+01
CGA:  17    -0.572582445558E+03    0.75320E+00   -0.95352E+00  1728   0.630E+02-0.398E+02
CGA:  18    -0.572928592519E+03   -0.34615E+00   -0.41205E+01  1728   0.166E+02-0.131E+02
CGA:  19    -0.573803272010E+03   -0.87468E+00   -0.48392E+00  1728   0.112E+02 0.134E+02
CGA:  20    -0.574352402027E+03   -0.54913E+00   -0.37245E+00  1728   0.188E+01-0.484E+01
CGA:  21    -0.574471518294E+03   -0.11912E+00   -0.12266E+00  1728   0.180E+01 0.678E-01
CGA:  22    -0.574607974436E+03   -0.13646E+00   -0.14639E+00  1728   0.132E+01-0.431E-01
CGA:  23    -0.574749289014E+03   -0.14131E+00   -0.14539E+00  1728   0.823E+00 0.879E-01
CGA:  24    -0.574827613312E+03   -0.78324E-01   -0.82103E-01  1728   0.296E+00 0.138E-01
CGA:  25    -0.574862952372E+03   -0.35339E-01   -0.35653E-01  1728   0.144E+00 0.154E-01
CGA:  26    -0.574882274535E+03   -0.19322E-01   -0.19318E-01  1728   0.892E-01 0.329E-02
CGA:  27    -0.574897021660E+03   -0.14747E-01   -0.14355E-01  1728   0.444E-01 0.860E-02
CGA:  28    -0.574903304443E+03   -0.62828E-02   -0.62820E-02  1728   0.282E-01 0.275E-03
CGA:  29    -0.574908518334E+03   -0.52139E-02   -0.51905E-02  1728   0.239E-01 0.253E-03
CGA:  30    -0.574911198720E+03   -0.26804E-02   -0.26848E-02  1728   0.105E-01-0.551E-04
CGA:  31    -0.574912591188E+03   -0.13925E-02   -0.13927E-02  1728   0.620E-02-0.603E-04
CGA:  32    -0.574913670496E+03   -0.10793E-02   -0.10770E-02  1728   0.426E-02 0.328E-04
CGA:  33    -0.574914321171E+03   -0.65067E-03   -0.65113E-03  1728   0.290E-02-0.214E-04
CGA:  34    -0.574914723610E+03   -0.40244E-03   -0.40254E-03  1728   0.186E-02-0.170E-04
CGA:  35    -0.574914989003E+03   -0.26539E-03   -0.26562E-03  1728   0.108E-02-0.190E-04
CGA:  36    -0.574915183299E+03   -0.19430E-03   -0.19472E-03  1728   0.930E-03-0.817E-05
CGA:  37    -0.574915341421E+03   -0.15812E-03   -0.15807E-03  1728   0.749E-03 0.300E-05
CGA:  38    -0.574915447344E+03   -0.10592E-03   -0.10589E-03  1728   0.522E-03 0.125E-04
CGA:  39    -0.574915539783E+03   -0.92439E-04   -0.92050E-04  1728   0.451E-03 0.118E-04
CGA:  40    -0.574915620844E+03   -0.81061E-04   -0.80774E-04  1728   0.349E-03 0.843E-05
CGA:  41    -0.574915676857E+03   -0.56013E-04   -0.56011E-04  1728   0.278E-03 0.229E-06
CGA:  42    -0.574915723332E+03   -0.46475E-04   -0.46551E-04  1728   0.233E-03-0.308E-05
CGA:  43    -0.574915761150E+03   -0.37818E-04   -0.37895E-04  1728   0.177E-03-0.363E-05
CGA:  44    -0.574915790730E+03   -0.29580E-04   -0.29682E-04  1728   0.157E-03-0.404E-05
CGA:  45    -0.574915819129E+03   -0.28399E-04   -0.28716E-04  1728   0.147E-03-0.777E-05
CGA:  46    -0.574915843289E+03   -0.24159E-04   -0.24339E-04  1728   0.110E-03-0.730E-05
CGA:  47    -0.574915860286E+03   -0.16998E-04   -0.17071E-04  1728   0.951E-04-0.568E-05
CGA:  48    -0.574915875331E+03   -0.15045E-04   -0.15093E-04  1728   0.757E-04-0.284E-05
CGA:  49    -0.574915887029E+03   -0.11698E-04   -0.11693E-04  1728   0.492E-04 0.468E-06
SDA:  50    -0.574915896284E+03   -0.92552E-05   -0.91865E-05  1728   0.443E-04 0.202E-05
   1 F= -.57491590E+03 E0= -.57490659E+03  d E =-.574916E+03  mag=    70.0000
       N       E                     dE             d eps       ncg     rms          ort
SDA:   1    -0.574914010024E+03    0.18770E-02    0.00000E+00  1728   0.743E-02 0.000E+00
CGA:   2    -0.574915104240E+03   -0.10942E-02   -0.10942E-02  1728   0.664E-02-0.132E-05
CGA:   3    -0.574915779786E+03   -0.67555E-03   -0.67614E-03  1728   0.202E-02 0.391E-05
CGA:   4    -0.574916143307E+03   -0.36352E-03   -0.36362E-03  1728   0.503E-03-0.293E-05
CGA:   5    -0.574916217532E+03   -0.74225E-04   -0.74226E-04  1728   0.290E-03 0.224E-05
CGA:   6    -0.574916248839E+03   -0.31307E-04   -0.31276E-04  1728   0.658E-04-0.324E-06
CGA:   7    -0.574916259014E+03   -0.10175E-04   -0.10182E-04  1728   0.491E-04-0.856E-06
CGA:   8    -0.574916264769E+03   -0.57550E-05   -0.57381E-05  1728   0.240E-04-0.603E-06
   2 F= -.57491626E+03 E0= -.57490695E+03  d E =-.368485E-03  mag=    70.0000
       N       E                     dE             d eps       ncg     rms          ort
SDA:   1    -0.574860342191E+03    0.55917E-01    0.00000E+00  1728   0.178E+00 0.000E+00
CGA:   2    -0.574894654418E+03   -0.34312E-01   -0.34307E-01  1728   0.934E-01 0.923E-04
CGA:   3    -0.574907425283E+03   -0.12771E-01   -0.12771E-01  1728   0.651E-01-0.888E-05
CGA:   4    -0.574914049807E+03   -0.66245E-02   -0.66340E-02  1728   0.148E-01 0.127E-04
CGA:   5    -0.574916193055E+03   -0.21432E-02   -0.21432E-02  1728   0.630E-02 0.119E-05
CGA:   6    -0.574916906320E+03   -0.71326E-03   -0.71259E-03  1728   0.163E-02-0.539E-05
CGA:   7    -0.574917141879E+03   -0.23556E-03   -0.23556E-03  1728   0.615E-03-0.109E-05
CGA:   8    -0.574917227630E+03   -0.85751E-04   -0.85756E-04  1728   0.372E-03 0.608E-06
CGA:   9    -0.574917269201E+03   -0.41571E-04   -0.41562E-04  1728   0.145E-03-0.140E-06
CGA:  10    -0.574917295441E+03   -0.26240E-04   -0.26212E-04  1728   0.939E-04 0.749E-06
CGA:  11    -0.574917307644E+03   -0.12203E-04   -0.12211E-04  1728   0.529E-04 0.528E-06
CGA:  12    -0.574917318023E+03   -0.10379E-04   -0.10383E-04  1728   0.278E-04-0.817E-07
CGA:  13    -0.574917323098E+03   -0.50749E-05   -0.50941E-05  1728   0.233E-04-0.474E-06
   3 F= -.57491732E+03 E0= -.57490803E+03  d E =-.105833E-02  mag=    70.0000
