       N       E                     dE             d eps       ncg     rms          ort
DAV:   1     0.117598920454E+05    0.11760E+05   -0.45957E+05  2208   0.168E+03
DAV:   2     0.850819776738E+03   -0.10909E+05   -0.10484E+05  2208   0.523E+02
DAV:   3    -0.842435688830E+03   -0.16933E+04   -0.16337E+04  2208   0.189E+02
DAV:   4    -0.971378487165E+03   -0.12894E+03   -0.12369E+03  2208   0.542E+01
DAV:   5    -0.980520333208E+03   -0.91418E+01   -0.88397E+01  2208   0.117E+01
SDA:   6     0.249545308985E+02    0.10055E+04   -0.88397E+01  2208   0.845E+04 0.000E+00
CGA:   7    -0.524779492895E+03   -0.54973E+03   -0.81879E+03  2208   0.904E+04-0.167E+04
CGA:   8    -0.495934307357E+03    0.28845E+02   -0.29962E+03  2208   0.128E+05-0.917E+04
CGA:   9    -0.365009177644E+03    0.13093E+03   -0.64257E+03  2208   0.105E+05-0.643E+04
CGA:  10    -0.334178024790E+03    0.30831E+02   -0.47544E+03  2208   0.132E+05-0.120E+05
CGA:  11    -0.366130158635E+03   -0.31952E+02   -0.59115E+03  2208   0.969E+04-0.964E+04
CGA:  12    -0.468825334802E+03   -0.10270E+03   -0.39994E+03  2208   0.113E+05-0.131E+05
CGA:  13    -0.457218395663E+03    0.11607E+02   -0.46295E+03  2208   0.826E+04-0.806E+04
CGA:  14    -0.552053712879E+03   -0.94835E+02   -0.30233E+03  2208   0.997E+04-0.116E+05
CGA:  15    -0.587564161226E+03   -0.35510E+02   -0.34873E+03  2208   0.689E+04-0.731E+04
CGA:  16    -0.612221266758E+03   -0.24657E+02   -0.23410E+03  2208   0.822E+04-0.871E+04
CGA:  17    -0.661263775871E+03   -0.49043E+02   -0.24732E+03  2208   0.415E+04-0.482E+04
CGA:  18    -0.758154969258E+03   -0.96891E+02   -0.10324E+03  2208   0.261E+04-0.535E+04
CGA:  19    -0.717579203320E+03    0.40576E+02   -0.96939E+02  2208   0.324E+04-0.206E+04
CGA:  20    -0.739237504645E+03   -0.21658E+02   -0.83045E+02  2208   0.441E+04-0.517E+04
CGA:  21    -0.686497030975E+03    0.52740E+02   -0.16260E+03  2208   0.365E+04-0.249E+04
CGA:  22    -0.777935312156E+03   -0.91438E+02   -0.80112E+02  2208   0.135E+04-0.358E+04
CGA:  23    -0.765688511962E+03    0.12247E+02   -0.40814E+02  2208   0.174E+04-0.125E+04
CGA:  24    -0.775196462616E+03   -0.95080E+01   -0.39178E+02  2208   0.179E+04-0.213E+04
CGA:  25    -0.756833568827E+03    0.18363E+02   -0.54164E+02  2208   0.218E+04-0.154E+04
CGA:  26    -0.767942584510E+03   -0.11109E+02   -0.49583E+02  2208   0.257E+04-0.299E+04
CGA:  27    -0.748511340756E+03    0.19431E+02   -0.74343E+02  2208   0.243E+04-0.185E+04
CGA:  28    -0.770784068369E+03   -0.22273E+02   -0.52719E+02  2208   0.243E+04-0.328E+04
CGA:  29    -0.754309903151E+03    0.16474E+02   -0.67655E+02  2208   0.230E+04-0.179E+04
CGA:  30    -0.780322414579E+03   -0.26013E+02   -0.46032E+02  2208   0.169E+04-0.263E+04
CGA:  31    -0.773951745347E+03    0.63707E+01   -0.41779E+02  2208   0.169E+04-0.143E+04
CGA:  32    -0.786055257433E+03   -0.12104E+02   -0.33013E+02  2208   0.126E+04-0.172E+04
CGA:  33    -0.785508546128E+03    0.54671E+00   -0.27830E+02  2208   0.111E+04-0.106E+04
CGA:  34    -0.795762716030E+03   -0.10254E+02   -0.18750E+02  2208   0.394E+03-0.716E+03
CGA:  35    -0.798797692561E+03   -0.30350E+01   -0.64120E+01  2208   0.122E+03-0.198E+03
CGA:  36    -0.800189892470E+03   -0.13922E+01   -0.13064E+01  2208   0.787E+01 0.598E+01
CGA:  37    -0.801497704514E+03   -0.13078E+01   -0.14254E+01  2208   0.115E+03-0.110E+01
CGA:  38    -0.803895757919E+03   -0.23981E+01   -0.24254E+01  2208   0.102E+03-0.159E+02
CGA:  39    -0.803487049207E+03    0.40871E+00   -0.11165E+01  2208   0.110E+03-0.105E+03
CGA:  40    -0.804560070703E+03   -0.10730E+01   -0.10269E+01  2208   0.183E+02 0.254E+01
CGA:  41    -0.805017473372E+03   -0.45740E+00   -0.42483E+00  2208   0.586E+01 0.982E+00
CGA:  42    -0.805173168196E+03   -0.15569E+00   -0.15946E+00  2208   0.104E+02-0.967E-01
CGA:  43    -0.805472189050E+03   -0.29902E+00   -0.28607E+00  2208   0.120E+02 0.223E+00
CGA:  44    -0.806020516556E+03   -0.54833E+00   -0.54004E+00  2208   0.217E+02-0.168E+00
CGA:  45    -0.806295876286E+03   -0.27536E+00   -0.35318E+00  2208   0.862E+01-0.362E+01
CGA:  46    -0.806414443050E+03   -0.11857E+00   -0.12030E+00  2208   0.296E+01-0.116E+00
CGA:  47    -0.806484990711E+03   -0.70548E-01   -0.72084E-01  2208   0.442E+01-0.369E-01
CGA:  48    -0.806619659096E+03   -0.13467E+00   -0.13680E+00  2208   0.391E+01-0.158E-01
CGA:  49    -0.806781620540E+03   -0.16196E+00   -0.16400E+00  2208   0.304E+01 0.810E-01
CGA:  50    -0.806863752708E+03   -0.82132E-01   -0.84750E-01  2208   0.174E+01-0.375E-01
CGA:  51    -0.806895696165E+03   -0.31943E-01   -0.33193E-01  2208   0.121E+01-0.443E-01
CGA:  52    -0.806942108721E+03   -0.46413E-01   -0.46649E-01  2208   0.168E+01 0.919E-02
CGA:  53    -0.806997908733E+03   -0.55800E-01   -0.56334E-01  2208   0.233E+01 0.355E-02
CGA:  54    -0.807054551217E+03   -0.56642E-01   -0.57055E-01  2208   0.575E+00-0.880E-02
CGA:  55    -0.807072439247E+03   -0.17888E-01   -0.17881E-01  2208   0.305E+00-0.314E-03
CGA:  56    -0.807087866372E+03   -0.15427E-01   -0.15403E-01  2208   0.717E+00 0.248E-02
CGA:  57    -0.807106596846E+03   -0.18730E-01   -0.18807E-01  2208   0.600E+00-0.589E-03
CGA:  58    -0.807125594842E+03   -0.18998E-01   -0.19030E-01  2208   0.224E+00 0.498E-03
CGA:  59    -0.807132447779E+03   -0.68529E-02   -0.68602E-02  2208   0.186E+00-0.204E-04
CGA:  60    -0.807138646010E+03   -0.61982E-02   -0.61955E-02  2208   0.238E+00-0.286E-03
CGA:  61    -0.807147682934E+03   -0.90369E-02   -0.90409E-02  2208   0.290E+00 0.380E-04
CGA:  62    -0.807158659999E+03   -0.10977E-01   -0.10979E-01  2208   0.289E+00-0.313E-03
CGA:  63    -0.807163991058E+03   -0.53311E-02   -0.53397E-02  2208   0.949E-01-0.103E-02
CGA:  64    -0.807167291856E+03   -0.33008E-02   -0.33043E-02  2208   0.785E-01 0.343E-04
CGA:  65    -0.807172254259E+03   -0.49624E-02   -0.49650E-02  2208   0.163E+00-0.156E-03
CGA:  66    -0.807177374973E+03   -0.51207E-02   -0.50997E-02  2208   0.188E+00-0.662E-03
CGA:  67    -0.807181205104E+03   -0.38301E-02   -0.38385E-02  2208   0.358E-01-0.582E-03
CGA:  68    -0.807183073731E+03   -0.18686E-02   -0.18687E-02  2208   0.342E-01-0.213E-04
CGA:  69    -0.807185354114E+03   -0.22804E-02   -0.22708E-02  2208   0.845E-01 0.326E-03
SDA:  70    -0.807187071905E+03   -0.17178E-02   -0.16927E-02  2208   0.363E-01 0.684E-03
CGA:  71    -0.807187692486E+03   -0.62058E-03   -0.62018E-03  2208   0.182E-01-0.133E-04
CGA:  72    -0.807188093958E+03   -0.40147E-03   -0.40109E-03  2208   0.969E-02-0.254E-04
CGA:  73    -0.807188695714E+03   -0.60176E-03   -0.60320E-03  2208   0.142E-01-0.641E-04
CGA:  74    -0.807189647821E+03   -0.95211E-03   -0.95406E-03  2208   0.290E-01-0.775E-04
CGA:  75    -0.807190182050E+03   -0.53423E-03   -0.53108E-03  2208   0.699E-02-0.695E-06
CGA:  76    -0.807190480064E+03   -0.29801E-03   -0.29797E-03  2208   0.676E-02 0.909E-05
CGA:  77    -0.807190735375E+03   -0.25531E-03   -0.25544E-03  2208   0.132E-01 0.398E-04
CGA:  78    -0.807191180496E+03   -0.44512E-03   -0.44484E-03  2208   0.129E-01 0.413E-04
CGA:  79    -0.807191694045E+03   -0.51355E-03   -0.51356E-03  2208   0.471E-02 0.130E-03
CGA:  80    -0.807191931992E+03   -0.23795E-03   -0.23739E-03  2208   0.515E-02 0.500E-04
CGA:  81    -0.807192190293E+03   -0.25830E-03   -0.25822E-03  2208   0.115E-01 0.148E-04
CGA:  82    -0.807192510078E+03   -0.31979E-03   -0.32003E-03  2208   0.658E-02 0.347E-04
CGA:  83    -0.807192681937E+03   -0.17186E-03   -0.17222E-03  2208   0.345E-02 0.129E-04
CGA:  84    -0.807192751241E+03   -0.69303E-04   -0.69020E-04  2208   0.205E-02 0.138E-04
CGA:  85    -0.807192836106E+03   -0.84866E-04   -0.84836E-04  2208   0.224E-02 0.688E-05
CGA:  86    -0.807192992636E+03   -0.15653E-03   -0.15639E-03  2208   0.339E-02 0.295E-05
CGA:  87    -0.807193097857E+03   -0.10522E-03   -0.10499E-03  2208   0.129E-02-0.432E-05
CGA:  88    -0.807193130915E+03   -0.33058E-04   -0.33024E-04  2208   0.146E-02-0.597E-05
CGA:  89    -0.807193170762E+03   -0.39847E-04   -0.39679E-04  2208   0.959E-03-0.127E-04
CGA:  90    -0.807193277857E+03   -0.10710E-03   -0.11358E-03  2208   0.289E-02-0.860E-04
CGA:  91    -0.807193325336E+03   -0.47479E-04   -0.47156E-04  2208   0.111E-02-0.398E-04
CGA:  92    -0.807193360981E+03   -0.35645E-04   -0.35471E-04  2208   0.453E-03-0.213E-04
CGA:  93    -0.807193376763E+03   -0.15782E-04   -0.15740E-04  2208   0.618E-03-0.908E-05
CGA:  94    -0.807193397028E+03   -0.20265E-04   -0.20211E-04  2208   0.905E-03-0.957E-05
CGA:  95    -0.807193454744E+03   -0.57715E-04   -0.58206E-04  2208   0.694E-03-0.214E-04
CGA:  96    -0.807193468707E+03   -0.13963E-04   -0.13860E-04  2208   0.389E-03-0.512E-05
CGA:  97    -0.807193476847E+03   -0.81402E-05   -0.81196E-05  2208   0.164E-03-0.325E-05
   1 F= -.80719348E+03 E0= -.80710858E+03  d E =-.807193E+03  mag=    66.0000
       N       E                     dE             d eps       ncg     rms          ort
SDA:   1    -0.807169200098E+03    0.24269E-01    0.00000E+00  2208   0.292E+01 0.000E+00
CGA:   2    -0.807197899653E+03   -0.28700E-01   -0.28806E-01  2208   0.146E+00-0.897E-02
CGA:   3    -0.807200441556E+03   -0.25419E-02   -0.25421E-02  2208   0.338E-01-0.698E-07
CGA:   4    -0.807201046985E+03   -0.60543E-03   -0.60561E-03  2208   0.184E-01 0.932E-05
CGA:   5    -0.807201721334E+03   -0.67435E-03   -0.67435E-03  2208   0.144E-01 0.192E-04
CGA:   6    -0.807202627292E+03   -0.90596E-03   -0.90556E-03  2208   0.173E-01 0.151E-04
CGA:   7    -0.807203226666E+03   -0.59937E-03   -0.59939E-03  2208   0.692E-02 0.424E-05
CGA:   8    -0.807203430218E+03   -0.20355E-03   -0.20349E-03  2208   0.290E-02-0.108E-04
CGA:   9    -0.807203510532E+03   -0.80314E-04   -0.80159E-04  2208   0.346E-02-0.163E-04
CGA:  10    -0.807203661933E+03   -0.15140E-03   -0.15171E-03  2208   0.391E-02-0.439E-04
CGA:  11    -0.807203762944E+03   -0.10101E-03   -0.10063E-03  2208   0.175E-02-0.343E-04
CGA:  12    -0.807203788504E+03   -0.25560E-04   -0.25346E-04  2208   0.476E-03-0.999E-05
CGA:  13    -0.807203805204E+03   -0.16700E-04   -0.16697E-04  2208   0.198E-03-0.852E-05
CGA:  14    -0.807203820600E+03   -0.15396E-04   -0.15737E-04  2208   0.378E-03-0.805E-05
CGA:  15    -0.807203831513E+03   -0.10913E-04   -0.10878E-04  2208   0.387E-03-0.467E-05
CGA:  16    -0.807203841310E+03   -0.97968E-05   -0.97573E-05  2208   0.869E-04-0.350E-05
   2 F= -.80720384E+03 E0= -.80711897E+03  d E =-.103645E-01  mag=    66.0000
       N       E                     dE             d eps       ncg     rms          ort
SDA:   1    -0.781143185172E+03    0.26061E+02    0.00000E+00  2208   0.105E+03 0.000E+00
CGA:   2    -0.784965369768E+03   -0.38222E+01   -0.38223E+01  2208   0.234E+03 0.755E+00
CGA:   3    -0.794035619324E+03   -0.90702E+01   -0.90924E+01  2208   0.231E+03-0.549E+01
CGA:   4    -0.800535633798E+03   -0.65000E+01   -0.63951E+01  2208   0.524E+02-0.241E+01
CGA:   5    -0.802218537032E+03   -0.16829E+01   -0.16771E+01  2208   0.563E+02-0.611E+00
CGA:   6    -0.803752433469E+03   -0.15339E+01   -0.15148E+01  2208   0.585E+02-0.402E+00
CGA:   7    -0.805961552377E+03   -0.22091E+01   -0.22136E+01  2208   0.366E+02-0.964E+00
CGA:   8    -0.806855062111E+03   -0.89351E+00   -0.89051E+00  2208   0.133E+02-0.365E-01
CGA:   9    -0.807084015977E+03   -0.22895E+00   -0.22810E+00  2208   0.821E+01 0.213E-01
CGA:  10    -0.807270201650E+03   -0.18619E+00   -0.18780E+00  2208   0.431E+01 0.712E-03
CGA:  11    -0.807523759158E+03   -0.25356E+00   -0.25309E+00  2208   0.566E+01 0.184E-01
CGA:  12    -0.807720539965E+03   -0.19678E+00   -0.19682E+00  2208   0.220E+01 0.921E-01
CGA:  13    -0.807761436171E+03   -0.40896E-01   -0.40728E-01  2208   0.125E+01 0.435E-02
CGA:  14    -0.807785940692E+03   -0.24505E-01   -0.24865E-01  2208   0.499E+00-0.488E-02
CGA:  15    -0.807815470193E+03   -0.29530E-01   -0.29419E-01  2208   0.106E+01 0.396E-02
CGA:  16    -0.807842481225E+03   -0.27011E-01   -0.27203E-01  2208   0.830E+00 0.417E-02
CGA:  17    -0.807864167397E+03   -0.21686E-01   -0.21744E-01  2208   0.312E+00 0.177E-02
CGA:  18    -0.807871336101E+03   -0.71687E-02   -0.71892E-02  2208   0.900E-01 0.124E-03
CGA:  19    -0.807875337472E+03   -0.40014E-02   -0.40002E-02  2208   0.225E+00 0.514E-04
CGA:  20    -0.807882592697E+03   -0.72552E-02   -0.72608E-02  2208   0.177E+00 0.160E-02
CGA:  21    -0.807889255931E+03   -0.66632E-02   -0.66589E-02  2208   0.121E+00 0.567E-03
CGA:  22    -0.807891699235E+03   -0.24433E-02   -0.24474E-02  2208   0.597E-01-0.105E-03
CGA:  23    -0.807893166421E+03   -0.14672E-02   -0.14684E-02  2208   0.335E-01 0.115E-04
CGA:  24    -0.807895637916E+03   -0.24715E-02   -0.24568E-02  2208   0.622E-01 0.371E-03
CGA:  25    -0.807897289230E+03   -0.16513E-02   -0.16535E-02  2208   0.570E-01 0.136E-03
CGA:  26    -0.807898668899E+03   -0.13797E-02   -0.13821E-02  2208   0.209E-01 0.134E-03
CGA:  27    -0.807899229912E+03   -0.56101E-03   -0.56169E-03  2208   0.120E-01 0.851E-04
CGA:  28    -0.807899673267E+03   -0.44336E-03   -0.44299E-03  2208   0.217E-01 0.101E-03
CGA:  29    -0.807900560497E+03   -0.88723E-03   -0.88557E-03  2208   0.176E-01 0.230E-03
CGA:  30    -0.807901289950E+03   -0.72945E-03   -0.72862E-03  2208   0.111E-01 0.115E-03
CGA:  31    -0.807901496234E+03   -0.20628E-03   -0.20627E-03  2208   0.598E-02-0.585E-05
SDA:  32    -0.807901712301E+03   -0.21607E-03   -0.21624E-03  2208   0.727E-02-0.708E-04
CGA:  33    -0.807901831055E+03   -0.11875E-03   -0.11842E-03  2208   0.321E-02-0.247E-04
CGA:  34    -0.807901926109E+03   -0.95054E-04   -0.94894E-04  2208   0.435E-02-0.554E-04
CGA:  35    -0.807902237047E+03   -0.31094E-03   -0.32157E-03  2208   0.661E-02-0.253E-03
CGA:  36    -0.807902486362E+03   -0.24932E-03   -0.25019E-03  2208   0.496E-02-0.164E-03
CGA:  37    -0.807902581692E+03   -0.95330E-04   -0.94993E-04  2208   0.275E-02-0.225E-04
CGA:  38    -0.807902680431E+03   -0.98739E-04   -0.98654E-04  2208   0.240E-02 0.466E-04
CGA:  39    -0.807902857473E+03   -0.17704E-03   -0.17039E-03  2208   0.388E-02 0.185E-03
CGA:  40    -0.807902977071E+03   -0.11960E-03   -0.12049E-03  2208   0.406E-02 0.121E-03
CGA:  41    -0.807903064421E+03   -0.87351E-04   -0.88518E-04  2208   0.142E-02 0.778E-04
CGA:  42    -0.807903129954E+03   -0.65533E-04   -0.65531E-04  2208   0.169E-02-0.152E-05
CGA:  43    -0.807903283316E+03   -0.15336E-03   -0.16061E-03  2208   0.311E-02-0.123E-03
CGA:  44    -0.807903344308E+03   -0.60992E-04   -0.60050E-04  2208   0.202E-02-0.540E-04
CGA:  45    -0.807903391624E+03   -0.47317E-04   -0.46740E-04  2208   0.470E-03-0.421E-04
CGA:  46    -0.807903417165E+03   -0.25541E-04   -0.25795E-04  2208   0.125E-02-0.144E-04
CGA:  47    -0.807903455043E+03   -0.37878E-04   -0.37801E-04  2208   0.146E-02-0.133E-04
CGA:  48    -0.807903509648E+03   -0.54606E-04   -0.54607E-04  2208   0.560E-03-0.783E-05
CGA:  49    -0.807903526777E+03   -0.17128E-04   -0.17183E-04  2208   0.217E-03 0.722E-05
CGA:  50    -0.807903533593E+03   -0.68161E-05   -0.68910E-05  2208   0.299E-03 0.117E-04
CGA:  51    -0.807903543770E+03   -0.10178E-04   -0.10292E-04  2208   0.296E-03 0.259E-04
CGA:  52    -0.807903565304E+03   -0.21534E-04   -0.20029E-04  2208   0.225E-03 0.583E-04
CGA:  53    -0.807903571722E+03   -0.64173E-05   -0.66062E-05  2208   0.185E-03 0.132E-04
   3 F= -.80790357E+03 E0= -.80781845E+03  d E =-.699730E+00  mag=    66.0000
       N       E                     dE             d eps       ncg     rms          ort
SDA:   1    -0.798620845098E+03    0.92827E+01    0.00000E+00  2208   0.390E+02 0.000E+00
CGA:   2    -0.800026542582E+03   -0.14057E+01   -0.14059E+01  2208   0.784E+02 0.204E+00
CGA:   3    -0.803210970629E+03   -0.31844E+01   -0.31869E+01  2208   0.740E+02-0.350E+00
CGA:   4    -0.805396318811E+03   -0.21853E+01   -0.21739E+01  2208   0.248E+02-0.442E+00
CGA:   5    -0.806026735931E+03   -0.63042E+00   -0.62770E+00  2208   0.223E+02-0.335E-01
CGA:   6    -0.806650366328E+03   -0.62363E+00   -0.61759E+00  2208   0.137E+02-0.146E+00
CGA:   7    -0.807449748812E+03   -0.79938E+00   -0.80498E+00  2208   0.132E+02-0.213E+00
CGA:   8    -0.807816367753E+03   -0.36662E+00   -0.36706E+00  2208   0.559E+01 0.769E-02
CGA:   9    -0.807900036586E+03   -0.83669E-01   -0.84524E-01  2208   0.189E+01-0.372E-01
CGA:  10    -0.807966476346E+03   -0.66440E-01   -0.66440E-01  2208   0.127E+01-0.247E-03
CGA:  11    -0.808056757142E+03   -0.90281E-01   -0.90319E-01  2208   0.165E+01-0.103E-02
CGA:  12    -0.808093915917E+03   -0.37159E-01   -0.37192E-01  2208   0.100E+01-0.145E-03
CGA:  13    -0.808112788113E+03   -0.18872E-01   -0.18937E-01  2208   0.225E+00-0.151E-02
CGA:  14    -0.808120532078E+03   -0.77440E-02   -0.77436E-02  2208   0.150E+00-0.182E-03
CGA:  15    -0.808130913229E+03   -0.10381E-01   -0.10349E-01  2208   0.349E+00 0.960E-03
CGA:  16    -0.808138266094E+03   -0.73529E-02   -0.73818E-02  2208   0.188E+00-0.303E-03
CGA:  17    -0.808143902014E+03   -0.56359E-02   -0.56383E-02  2208   0.414E-01 0.145E-03
CGA:  18    -0.808145196904E+03   -0.12949E-02   -0.12952E-02  2208   0.378E-01-0.130E-04
CGA:  19    -0.808146396002E+03   -0.11991E-02   -0.11990E-02  2208   0.560E-01-0.445E-04
CGA:  20    -0.808149370708E+03   -0.29747E-02   -0.29724E-02  2208   0.472E-01 0.735E-04
CGA:  21    -0.808150879731E+03   -0.15090E-02   -0.15094E-02  2208   0.224E-01-0.139E-04
CGA:  22    -0.808151304351E+03   -0.42462E-03   -0.42500E-03  2208   0.131E-01-0.978E-05
CGA:  23    -0.808151827293E+03   -0.52294E-03   -0.52259E-03  2208   0.132E-01 0.647E-04
CGA:  24    -0.808152789929E+03   -0.96264E-03   -0.95521E-03  2208   0.180E-01 0.201E-03
CGA:  25    -0.808153202762E+03   -0.41283E-03   -0.41429E-03  2208   0.127E-01 0.798E-04
CGA:  26    -0.808153501520E+03   -0.29876E-03   -0.29966E-03  2208   0.329E-02 0.571E-04
CGA:  27    -0.808153713678E+03   -0.21216E-03   -0.21157E-03  2208   0.573E-02 0.184E-04
CGA:  28    -0.808153930252E+03   -0.21657E-03   -0.21657E-03  2208   0.972E-02 0.898E-06
CGA:  29    -0.808154217428E+03   -0.28718E-03   -0.28709E-03  2208   0.390E-02-0.146E-04
CGA:  30    -0.808154327582E+03   -0.11015E-03   -0.11001E-03  2208   0.150E-02-0.175E-04
CGA:  31    -0.808154402782E+03   -0.75200E-04   -0.75493E-04  2208   0.327E-02-0.224E-04
SDA:  32    -0.808154494580E+03   -0.91798E-04   -0.91565E-04  2208   0.287E-02-0.280E-04
CGA:  33    -0.808154543401E+03   -0.48821E-04   -0.48862E-04  2208   0.126E-02 0.427E-06
CGA:  34    -0.808154571652E+03   -0.28251E-04   -0.28291E-04  2208   0.714E-03 0.131E-05
CGA:  35    -0.808154617263E+03   -0.45611E-04   -0.45381E-04  2208   0.127E-02 0.689E-05
CGA:  36    -0.808154717117E+03   -0.99854E-04   -0.99241E-04  2208   0.152E-02 0.140E-04
CGA:  37    -0.808154765613E+03   -0.48496E-04   -0.48529E-04  2208   0.103E-02 0.346E-05
CGA:  38    -0.808154784097E+03   -0.18484E-04   -0.18493E-04  2208   0.365E-03-0.677E-06
CGA:  39    -0.808154815730E+03   -0.31633E-04   -0.31871E-04  2208   0.892E-03-0.546E-05
CGA:  40    -0.808154854753E+03   -0.39023E-04   -0.39048E-04  2208   0.137E-02-0.607E-05
CGA:  41    -0.808154880358E+03   -0.25605E-04   -0.25547E-04  2208   0.415E-03-0.326E-05
CGA:  42    -0.808154897279E+03   -0.16921E-04   -0.16918E-04  2208   0.269E-03 0.932E-06
CGA:  43    -0.808154922700E+03   -0.25420E-04   -0.25099E-04  2208   0.462E-03 0.549E-05
CGA:  44    -0.808154939920E+03   -0.17221E-04   -0.17231E-04  2208   0.570E-03 0.134E-05
CGA:  45    -0.808154952116E+03   -0.12196E-04   -0.12183E-04  2208   0.147E-03-0.118E-05
CGA:  46    -0.808154958158E+03   -0.60419E-05   -0.60462E-05  2208   0.198E-03-0.495E-05
   4 F= -.80815496E+03 E0= -.80807355E+03  d E =-.251386E+00  mag=    66.0000
       N       E                     dE             d eps       ncg     rms          ort
SDA:   1    -0.780198148336E+03    0.27957E+02    0.00000E+00  2208   0.131E+03 0.000E+00
CGA:   2    -0.786154580882E+03   -0.59564E+01   -0.59412E+01  2208   0.172E+03 0.252E+01
CGA:   3    -0.793207777091E+03   -0.70532E+01   -0.70536E+01  2208   0.232E+03 0.306E+00
CGA:   4    -0.799840222191E+03   -0.66324E+01   -0.65104E+01  2208   0.677E+02 0.116E+01
CGA:   5    -0.802026370456E+03   -0.21861E+01   -0.21499E+01  2208   0.738E+02-0.912E+00
CGA:   6    -0.803730856817E+03   -0.17045E+01   -0.15734E+01  2208   0.402E+02 0.271E+01
CGA:   7    -0.805467807494E+03   -0.17370E+01   -0.17392E+01  2208   0.626E+02-0.477E+00
CGA:   8    -0.806689642078E+03   -0.12218E+01   -0.12028E+01  2208   0.361E+02 0.565E+00
CGA:   9    -0.807518620911E+03   -0.82898E+00   -0.81703E+00  2208   0.110E+02 0.111E+00
CGA:  10    -0.807687020922E+03   -0.16840E+00   -0.16975E+00  2208   0.579E+01-0.586E-01
CGA:  11    -0.807843806498E+03   -0.15679E+00   -0.15777E+00  2208   0.397E+01 0.172E-01
CGA:  12    -0.807974522907E+03   -0.13072E+00   -0.13091E+00  2208   0.688E+01 0.271E-01
CGA:  13    -0.808156967854E+03   -0.18244E+00   -0.18387E+00  2208   0.328E+01 0.252E-01
CGA:  14    -0.808232704719E+03   -0.75737E-01   -0.76202E-01  2208   0.187E+01-0.874E-03
CGA:  15    -0.808265668405E+03   -0.32964E-01   -0.33682E-01  2208   0.631E+00-0.173E-01
CGA:  16    -0.808284071936E+03   -0.18404E-01   -0.18437E-01  2208   0.455E+00 0.279E-02
CGA:  17    -0.808304411430E+03   -0.20339E-01   -0.20264E-01  2208   0.970E+00 0.523E-02
CGA:  18    -0.808331861507E+03   -0.27450E-01   -0.27654E-01  2208   0.444E+00 0.101E-01
CGA:  19    -0.808346976468E+03   -0.15115E-01   -0.15116E-01  2208   0.217E+00 0.255E-02
CGA:  20    -0.808351153524E+03   -0.41771E-02   -0.41901E-02  2208   0.107E+00-0.184E-03
CGA:  21    -0.808355693224E+03   -0.45397E-02   -0.45304E-02  2208   0.116E+00 0.683E-03
CGA:  22    -0.808362798764E+03   -0.71055E-02   -0.70819E-02  2208   0.233E+00 0.799E-03
CGA:  23    -0.808367994614E+03   -0.51959E-02   -0.52362E-02  2208   0.973E-01-0.210E-03
CGA:  24    -0.808371254030E+03   -0.32594E-02   -0.32599E-02  2208   0.428E-01 0.292E-03
CGA:  25    -0.808372715079E+03   -0.14610E-02   -0.14611E-02  2208   0.422E-01 0.157E-03
CGA:  26    -0.808374189908E+03   -0.14748E-02   -0.14747E-02  2208   0.503E-01 0.247E-03
CGA:  27    -0.808376938074E+03   -0.27482E-02   -0.27351E-02  2208   0.345E-01 0.606E-03
CGA:  28    -0.808378124299E+03   -0.11862E-02   -0.11866E-02  2208   0.278E-01 0.215E-03
CGA:  29    -0.808378690845E+03   -0.56655E-03   -0.56776E-03  2208   0.102E-01 0.255E-04
CGA:  30    -0.808379384272E+03   -0.69343E-03   -0.69488E-03  2208   0.196E-01-0.471E-04
CGA:  31    -0.808380099392E+03   -0.71512E-03   -0.71516E-03  2208   0.220E-01-0.918E-04
SDA:  32    -0.808380729334E+03   -0.62994E-03   -0.62958E-03  2208   0.892E-02-0.868E-04
CGA:  33    -0.808380941277E+03   -0.21194E-03   -0.21219E-03  2208   0.315E-02 0.148E-04
CGA:  34    -0.808381089343E+03   -0.14807E-03   -0.14761E-03  2208   0.610E-02 0.375E-04
CGA:  35    -0.808381326476E+03   -0.23713E-03   -0.23695E-03  2208   0.654E-02 0.658E-04
CGA:  36    -0.808381673676E+03   -0.34720E-03   -0.34620E-03  2208   0.670E-02 0.603E-04
CGA:  37    -0.808381822617E+03   -0.14894E-03   -0.14904E-03  2208   0.273E-02-0.415E-06
CGA:  38    -0.808381944569E+03   -0.12195E-03   -0.12243E-03  2208   0.308E-02-0.546E-04
CGA:  39    -0.808382140901E+03   -0.19633E-03   -0.20027E-03  2208   0.367E-02-0.133E-03
CGA:  40    -0.808382300374E+03   -0.15947E-03   -0.16009E-03  2208   0.214E-02-0.821E-04
CGA:  41    -0.808382344790E+03   -0.44416E-04   -0.44421E-04  2208   0.160E-02-0.132E-05
CGA:  42    -0.808382447145E+03   -0.10235E-03   -0.10081E-03  2208   0.187E-02 0.595E-04
CGA:  43    -0.808382543099E+03   -0.95954E-04   -0.95167E-04  2208   0.240E-02 0.752E-04
CGA:  44    -0.808382606838E+03   -0.63739E-04   -0.64384E-04  2208   0.870E-03 0.464E-04
CGA:  45    -0.808382639741E+03   -0.32903E-04   -0.32916E-04  2208   0.513E-03 0.813E-05
CGA:  46    -0.808382701045E+03   -0.61304E-04   -0.64699E-04  2208   0.179E-02-0.397E-04
CGA:  47    -0.808382736660E+03   -0.35616E-04   -0.35094E-04  2208   0.837E-03-0.259E-04
CGA:  48    -0.808382763877E+03   -0.27217E-04   -0.27052E-04  2208   0.393E-03-0.192E-04
CGA:  49    -0.808382775246E+03   -0.11370E-04   -0.11314E-04  2208   0.365E-03-0.523E-05
CGA:  50    -0.808382793686E+03   -0.18440E-04   -0.18448E-04  2208   0.635E-03-0.135E-05
CGA:  51    -0.808382825190E+03   -0.31503E-04   -0.31454E-04  2208   0.561E-03 0.544E-05
CGA:  52    -0.808382836003E+03   -0.10813E-04   -0.10910E-04  2208   0.238E-03 0.370E-05
CGA:  53    -0.808382842820E+03   -0.68173E-05   -0.68825E-05  2208   0.114E-03 0.502E-05
CGA:  54    -0.808382855927E+03   -0.13107E-04   -0.12068E-04  2208   0.260E-03 0.160E-04
CGA:  55    -0.808382863538E+03   -0.76104E-05   -0.77684E-05  2208   0.233E-03 0.895E-05
   5 F= -.80838286E+03 E0= -.80831255E+03  d E =-.227905E+00  mag=    66.0000
       N       E                     dE             d eps       ncg     rms          ort
SDA:   1    -0.805042978268E+03    0.33399E+01    0.00000E+00  2208   0.135E+02 0.000E+00
CGA:   2    -0.805823013188E+03   -0.78003E+00   -0.78231E+00  2208   0.282E+02-0.898E-01
CGA:   3    -0.806862041699E+03   -0.10390E+01   -0.10396E+01  2208   0.254E+02 0.458E-01
CGA:   4    -0.807440307872E+03   -0.57827E+00   -0.58362E+00  2208   0.647E+01-0.969E-01
CGA:   5    -0.807742804554E+03   -0.30250E+00   -0.30239E+00  2208   0.540E+01 0.141E-01
CGA:   6    -0.808087537045E+03   -0.34473E+00   -0.34428E+00  2208   0.615E+01 0.197E-01
CGA:   7    -0.808244640247E+03   -0.15710E+00   -0.15718E+00  2208   0.366E+01-0.189E-02
CGA:   8    -0.808330810225E+03   -0.86170E-01   -0.85589E-01  2208   0.652E+00 0.885E-02
CGA:   9    -0.808362555492E+03   -0.31745E-01   -0.31758E-01  2208   0.635E+00-0.940E-03
CGA:  10    -0.808383268246E+03   -0.20713E-01   -0.20713E-01  2208   0.646E+00 0.298E-03
CGA:  11    -0.808416522162E+03   -0.33254E-01   -0.33241E-01  2208   0.161E+00 0.951E-03
CGA:  12    -0.808421344356E+03   -0.48222E-02   -0.48229E-02  2208   0.130E+00 0.436E-04
CGA:  13    -0.808424437338E+03   -0.30930E-02   -0.30916E-02  2208   0.545E-01 0.515E-04
CGA:  14    -0.808428328317E+03   -0.38910E-02   -0.38859E-02  2208   0.691E-01 0.158E-03
CGA:  15    -0.808432269472E+03   -0.39412E-02   -0.39421E-02  2208   0.443E-01-0.332E-04
CGA:  16    -0.808433335101E+03   -0.10656E-02   -0.10672E-02  2208   0.188E-01 0.481E-05
CGA:  17    -0.808433868049E+03   -0.53295E-03   -0.53329E-03  2208   0.143E-01 0.177E-04
CGA:  18    -0.808434802138E+03   -0.93409E-03   -0.93265E-03  2208   0.254E-01 0.587E-04
CGA:  19    -0.808435693423E+03   -0.89129E-03   -0.89180E-03  2208   0.219E-01 0.608E-04
CGA:  20    -0.808436396531E+03   -0.70311E-03   -0.70375E-03  2208   0.592E-02 0.405E-04
CGA:  21    -0.808436744966E+03   -0.34843E-03   -0.34847E-03  2208   0.595E-02-0.445E-05
CGA:  22    -0.808437116135E+03   -0.37117E-03   -0.37192E-03  2208   0.152E-01-0.366E-04
CGA:  23    -0.808437550947E+03   -0.43481E-03   -0.43425E-03  2208   0.605E-02-0.478E-04
CGA:  24    -0.808437760819E+03   -0.20987E-03   -0.20983E-03  2208   0.251E-02-0.110E-04
CGA:  25    -0.808437878839E+03   -0.11802E-03   -0.11797E-03  2208   0.281E-02 0.102E-04
CGA:  26    -0.808438014539E+03   -0.13570E-03   -0.13554E-03  2208   0.366E-02 0.268E-04
CGA:  27    -0.808438155344E+03   -0.14081E-03   -0.14094E-03  2208   0.220E-02 0.297E-04
CGA:  28    -0.808438229810E+03   -0.74466E-04   -0.74540E-04  2208   0.919E-03 0.867E-05
CGA:  29    -0.808438260796E+03   -0.30986E-04   -0.30947E-04  2208   0.120E-02-0.516E-05
CGA:  30    -0.808438313205E+03   -0.52409E-04   -0.52451E-04  2208   0.109E-02-0.176E-04
CGA:  31    -0.808438380751E+03   -0.67546E-04   -0.68096E-04  2208   0.567E-03-0.257E-04
SDA:  32    -0.808438402102E+03   -0.21351E-04   -0.21342E-04  2208   0.400E-03-0.257E-05
CGA:  33    -0.808438410385E+03   -0.82825E-05   -0.83545E-05  2208   0.252E-03 0.313E-05
CGA:  34    -0.808438425565E+03   -0.15181E-04   -0.14948E-04  2208   0.452E-03 0.131E-04
CGA:  35    -0.808438448952E+03   -0.23386E-04   -0.23253E-04  2208   0.465E-03 0.199E-04
CGA:  36    -0.808438460524E+03   -0.11572E-04   -0.11699E-04  2208   0.179E-03 0.672E-05
CGA:  37    -0.808438468430E+03   -0.79059E-05   -0.79118E-05  2208   0.129E-03-0.345E-05
CGA:  38    -0.808438480725E+03   -0.12295E-04   -0.13925E-04  2208   0.326E-03-0.238E-04
CGA:  39    -0.808438491603E+03   -0.10878E-04   -0.10779E-04  2208   0.293E-03-0.216E-04
CGA:  40    -0.808438498085E+03   -0.64825E-05   -0.62888E-05  2208   0.113E-03-0.894E-05
   6 F= -.80843850E+03 E0= -.80837284E+03  d E =-.556345E-01  mag=    66.0000
       N       E                     dE             d eps       ncg     rms          ort
SDA:   1    -0.780111178040E+03    0.28327E+02    0.00000E+00  2208   0.123E+03 0.000E+00
CGA:   2    -0.787218510568E+03   -0.71073E+01   -0.71603E+01  2208   0.186E+03-0.136E+01
CGA:   3    -0.796216513093E+03   -0.89980E+01   -0.90454E+01  2208   0.165E+03-0.512E+01
CGA:   4    -0.799988012713E+03   -0.37715E+01   -0.36838E+01  2208   0.540E+02 0.341E+01
CGA:   5    -0.802607307498E+03   -0.26193E+01   -0.26163E+01  2208   0.475E+02 0.435E+00
CGA:   6    -0.805994683569E+03   -0.33874E+01   -0.33863E+01  2208   0.409E+02-0.604E-01
CGA:   7    -0.807119203502E+03   -0.11245E+01   -0.11096E+01  2208   0.271E+02 0.128E+00
CGA:   8    -0.807709612349E+03   -0.59041E+00   -0.57690E+00  2208   0.521E+01 0.320E+00
CGA:   9    -0.807925539327E+03   -0.21593E+00   -0.21598E+00  2208   0.389E+01 0.148E-01
CGA:  10    -0.808120635031E+03   -0.19510E+00   -0.19470E+00  2208   0.677E+01 0.363E-01
CGA:  11    -0.808313323323E+03   -0.19269E+00   -0.19415E+00  2208   0.262E+01-0.218E-04
CGA:  12    -0.808389395741E+03   -0.76072E-01   -0.76876E-01  2208   0.634E+00 0.441E-02
CGA:  13    -0.808414154021E+03   -0.24758E-01   -0.24775E-01  2208   0.566E+00 0.281E-02
CGA:  14    -0.808435009625E+03   -0.20856E-01   -0.20861E-01  2208   0.548E+00 0.543E-03
CGA:  15    -0.808467012623E+03   -0.32003E-01   -0.31702E-01  2208   0.571E+00 0.141E-01
CGA:  16    -0.808481466488E+03   -0.14454E-01   -0.14414E-01  2208   0.214E+00 0.697E-03
CGA:  17    -0.808489354177E+03   -0.78877E-02   -0.78903E-02  2208   0.707E-01 0.242E-03
CGA:  18    -0.808495544182E+03   -0.61900E-02   -0.61404E-02  2208   0.164E+00 0.111E-02
CGA:  19    -0.808503333186E+03   -0.77890E-02   -0.77831E-02  2208   0.134E+00 0.951E-03
CGA:  20    -0.808507169706E+03   -0.38365E-02   -0.38554E-02  2208   0.700E-01 0.218E-04
CGA:  21    -0.808509759250E+03   -0.25895E-02   -0.25897E-02  2208   0.310E-01 0.377E-04
CGA:  22    -0.808512508670E+03   -0.27494E-02   -0.27353E-02  2208   0.468E-01 0.317E-03
CGA:  23    -0.808515052458E+03   -0.25438E-02   -0.25418E-02  2208   0.510E-01 0.176E-03
CGA:  24    -0.808516699023E+03   -0.16466E-02   -0.16498E-02  2208   0.183E-01 0.603E-04
CGA:  25    -0.808517541420E+03   -0.84240E-03   -0.84230E-03  2208   0.140E-01 0.293E-04
CGA:  26    -0.808518243474E+03   -0.70205E-03   -0.70219E-03  2208   0.197E-01-0.278E-04
CGA:  27    -0.808519029380E+03   -0.78591E-03   -0.78580E-03  2208   0.136E-01-0.343E-04
CGA:  28    -0.808519656400E+03   -0.62702E-03   -0.62704E-03  2208   0.721E-02-0.225E-04
CGA:  29    -0.808520042474E+03   -0.38607E-03   -0.38593E-03  2208   0.371E-02 0.859E-05
CGA:  30    -0.808520351612E+03   -0.30914E-03   -0.30821E-03  2208   0.853E-02 0.240E-04
CGA:  31    -0.808520658068E+03   -0.30646E-03   -0.30685E-03  2208   0.410E-02 0.275E-04
SDA:  32    -0.808520856935E+03   -0.19887E-03   -0.19884E-03  2208   0.263E-02 0.139E-04
CGA:  33    -0.808520913118E+03   -0.56183E-04   -0.56110E-04  2208   0.134E-02-0.462E-05
CGA:  34    -0.808521011238E+03   -0.98120E-04   -0.98497E-04  2208   0.234E-02-0.144E-04
CGA:  35    -0.808521152459E+03   -0.14122E-03   -0.14157E-03  2208   0.181E-02-0.253E-04
CGA:  36    -0.808521227317E+03   -0.74859E-04   -0.74818E-04  2208   0.123E-02-0.836E-05
CGA:  37    -0.808521271583E+03   -0.44266E-04   -0.44293E-04  2208   0.795E-03 0.148E-05
CGA:  38    -0.808521328373E+03   -0.56789E-04   -0.56483E-04  2208   0.111E-02 0.119E-04
CGA:  39    -0.808521411569E+03   -0.83196E-04   -0.82649E-04  2208   0.753E-03 0.205E-04
CGA:  40    -0.808521451675E+03   -0.40106E-04   -0.40101E-04  2208   0.468E-03 0.665E-06
CGA:  41    -0.808521471426E+03   -0.19751E-04   -0.19696E-04  2208   0.732E-03-0.804E-05
CGA:  42    -0.808521515326E+03   -0.43900E-04   -0.44248E-04  2208   0.594E-03-0.281E-04
CGA:  43    -0.808521545893E+03   -0.30567E-04   -0.30647E-04  2208   0.392E-03-0.201E-04
CGA:  44    -0.808521560780E+03   -0.14887E-04   -0.14831E-04  2208   0.228E-03-0.600E-05
CGA:  45    -0.808521574802E+03   -0.14022E-04   -0.13991E-04  2208   0.356E-03 0.184E-05
CGA:  46    -0.808521593231E+03   -0.18429E-04   -0.18417E-04  2208   0.337E-03 0.800E-05
CGA:  47    -0.808521609908E+03   -0.16676E-04   -0.16690E-04  2208   0.953E-04 0.852E-05
CGA:  48    -0.808521618351E+03   -0.84431E-05   -0.83623E-05  2208   0.135E-03 0.182E-05
   7 F= -.80852162E+03 E0= -.80846813E+03  d E =-.831203E-01  mag=    66.0000
       N       E                     dE             d eps       ncg     rms          ort
SDA:   1    -0.801983153909E+03    0.65385E+01    0.00000E+00  2208   0.258E+02 0.000E+00
CGA:   2    -0.804859394472E+03   -0.28762E+01   -0.29516E+01  2208   0.676E+02-0.132E+01
CGA:   3    -0.806226202427E+03   -0.13668E+01   -0.14241E+01  2208   0.152E+02-0.160E+01
CGA:   4    -0.806831945662E+03   -0.60574E+00   -0.59841E+00  2208   0.102E+02-0.105E+00
CGA:   5    -0.807684948071E+03   -0.85300E+00   -0.86036E+00  2208   0.140E+02-0.191E+00
CGA:   6    -0.808115443234E+03   -0.43050E+00   -0.43769E+00  2208   0.574E+01-0.851E-01
CGA:   7    -0.808277805758E+03   -0.16236E+00   -0.16471E+00  2208   0.177E+01-0.336E-01
CGA:   8    -0.808348068609E+03   -0.70263E-01   -0.70311E-01  2208   0.133E+01 0.126E-02
CGA:   9    -0.808437788840E+03   -0.89720E-01   -0.89784E-01  2208   0.122E+01-0.267E-02
CGA:  10    -0.808474477305E+03   -0.36688E-01   -0.36774E-01  2208   0.707E+00-0.418E-03
CGA:  11    -0.808493726137E+03   -0.19249E-01   -0.19294E-01  2208   0.136E+00-0.525E-03
CGA:  12    -0.808502187486E+03   -0.84613E-02   -0.84625E-02  2208   0.126E+00-0.323E-04
CGA:  13    -0.808510820312E+03   -0.86328E-02   -0.86177E-02  2208   0.186E+00 0.671E-03
CGA:  14    -0.808516693927E+03   -0.58736E-02   -0.58702E-02  2208   0.672E-01 0.102E-03
CGA:  15    -0.808519429826E+03   -0.27359E-02   -0.27369E-02  2208   0.286E-01 0.459E-04
CGA:  16    -0.808520907163E+03   -0.14773E-02   -0.14772E-02  2208   0.308E-01 0.477E-04
CGA:  17    -0.808522678233E+03   -0.17711E-02   -0.17702E-02  2208   0.456E-01 0.824E-04
CGA:  18    -0.808524308284E+03   -0.16301E-02   -0.16310E-02  2208   0.279E-01 0.939E-05
CGA:  19    -0.808525558085E+03   -0.12498E-02   -0.12498E-02  2208   0.119E-01-0.119E-05
CGA:  20    -0.808526149527E+03   -0.59144E-03   -0.59144E-03  2208   0.123E-01 0.916E-05
CGA:  21    -0.808526732887E+03   -0.58336E-03   -0.58337E-03  2208   0.150E-01 0.458E-05
CGA:  22    -0.808527715992E+03   -0.98311E-03   -0.98227E-03  2208   0.998E-02 0.402E-04
CGA:  23    -0.808528116244E+03   -0.40025E-03   -0.40037E-03  2208   0.531E-02 0.748E-05
CGA:  24    -0.808528350167E+03   -0.23392E-03   -0.23397E-03  2208   0.413E-02 0.689E-05
CGA:  25    -0.808528546476E+03   -0.19631E-03   -0.19632E-03  2208   0.632E-02 0.834E-05
CGA:  26    -0.808528872208E+03   -0.32573E-03   -0.32570E-03  2208   0.255E-02 0.141E-04
CGA:  27    -0.808528993501E+03   -0.12129E-03   -0.12130E-03  2208   0.212E-02 0.457E-05
CGA:  28    -0.808529061223E+03   -0.67722E-04   -0.67708E-04  2208   0.132E-02 0.177E-06
CGA:  29    -0.808529197998E+03   -0.13677E-03   -0.13681E-03  2208   0.173E-02-0.862E-06
CGA:  30    -0.808529292925E+03   -0.94927E-04   -0.94942E-04  2208   0.114E-02-0.392E-05
CGA:  31    -0.808529323803E+03   -0.30878E-04   -0.30836E-04  2208   0.649E-03-0.203E-05
SDA:  32    -0.808529362881E+03   -0.39078E-04   -0.39134E-04  2208   0.724E-03-0.551E-05
CGA:  33    -0.808529383091E+03   -0.20210E-04   -0.20194E-04  2208   0.402E-03-0.962E-06
CGA:  34    -0.808529398402E+03   -0.15311E-04   -0.15293E-04  2208   0.384E-03-0.166E-05
CGA:  35    -0.808529430846E+03   -0.32444E-04   -0.32602E-04  2208   0.481E-03-0.456E-05
CGA:  36    -0.808529454797E+03   -0.23950E-04   -0.23949E-04  2208   0.402E-03-0.294E-05
CGA:  37    -0.808529465895E+03   -0.11098E-04   -0.11097E-04  2208   0.159E-03-0.242E-06
CGA:  38    -0.808529477562E+03   -0.11667E-04   -0.11615E-04  2208   0.187E-03 0.206E-05
CGA:  39    -0.808529491374E+03   -0.13812E-04   -0.13736E-04  2208   0.243E-03 0.329E-05
CGA:  40    -0.808529504574E+03   -0.13201E-04   -0.13197E-04  2208   0.103E-03 0.168E-05
CGA:  41    -0.808529511958E+03   -0.73831E-05   -0.74303E-05  2208   0.132E-03-0.250E-05
   8 F= -.80852951E+03 E0= -.80847579E+03  d E =-.789361E-02  mag=    66.0000
       N       E                     dE             d eps       ncg     rms          ort
SDA:   1    -0.807936131252E+03    0.59337E+00    0.00000E+00  2208   0.406E+01 0.000E+00
CGA:   2    -0.808062615762E+03   -0.12648E+00   -0.12501E+00  2208   0.417E+01 0.135E-01
CGA:   3    -0.808300604990E+03   -0.23799E+00   -0.23803E+00  2208   0.227E+01-0.416E-02
CGA:   4    -0.808376621440E+03   -0.76016E-01   -0.76636E-01  2208   0.734E+00-0.202E-02
CGA:   5    -0.808437642444E+03   -0.61021E-01   -0.61250E-01  2208   0.140E+01-0.624E-02
CGA:   6    -0.808501377340E+03   -0.63735E-01   -0.63781E-01  2208   0.917E+00 0.228E-02
CGA:   7    -0.808523737562E+03   -0.22360E-01   -0.22389E-01  2208   0.214E+00-0.723E-03
CGA:   8    -0.808533524524E+03   -0.97870E-02   -0.97831E-02  2208   0.104E+00-0.242E-03
CGA:   9    -0.808537618359E+03   -0.40938E-02   -0.40956E-02  2208   0.109E+00 0.549E-04
CGA:  10    -0.808542728997E+03   -0.51106E-02   -0.51095E-02  2208   0.546E-01-0.116E-03
CGA:  11    -0.808545253364E+03   -0.25244E-02   -0.25242E-02  2208   0.190E-01-0.651E-05
CGA:  12    -0.808545863357E+03   -0.60999E-03   -0.60966E-03  2208   0.110E-01 0.659E-05
CGA:  13    -0.808546414040E+03   -0.55068E-03   -0.55067E-03  2208   0.135E-01 0.159E-04
CGA:  14    -0.808547002776E+03   -0.58874E-03   -0.58880E-03  2208   0.847E-02 0.114E-04
CGA:  15    -0.808547419679E+03   -0.41690E-03   -0.41690E-03  2208   0.326E-02 0.926E-05
CGA:  16    -0.808547527812E+03   -0.10813E-03   -0.10822E-03  2208   0.229E-02 0.226E-05
CGA:  17    -0.808547635453E+03   -0.10764E-03   -0.10764E-03  2208   0.196E-02 0.964E-06
CGA:  18    -0.808547801391E+03   -0.16594E-03   -0.16590E-03  2208   0.232E-02 0.127E-05
CGA:  19    -0.808547871704E+03   -0.70313E-04   -0.70352E-04  2208   0.125E-02 0.690E-06
CGA:  20    -0.808547918220E+03   -0.46517E-04   -0.46538E-04  2208   0.637E-03 0.132E-05
CGA:  21    -0.808547957278E+03   -0.39058E-04   -0.39030E-04  2208   0.682E-03 0.201E-05
CGA:  22    -0.808548006467E+03   -0.49189E-04   -0.49111E-04  2208   0.920E-03 0.340E-05
CGA:  23    -0.808548037737E+03   -0.31270E-04   -0.31299E-04  2208   0.475E-03 0.159E-05
CGA:  24    -0.808548055428E+03   -0.17691E-04   -0.17692E-04  2208   0.234E-03-0.775E-07
CGA:  25    -0.808548068654E+03   -0.13226E-04   -0.13232E-04  2208   0.279E-03-0.953E-06
CGA:  26    -0.808548082229E+03   -0.13574E-04   -0.13574E-04  2208   0.357E-03-0.112E-05
CGA:  27    -0.808548098899E+03   -0.16670E-04   -0.16667E-04  2208   0.133E-03-0.194E-05
CGA:  28    -0.808548105964E+03   -0.70645E-05   -0.70629E-05  2208   0.917E-04 0.153E-06
   9 F= -.80854811E+03 E0= -.80849540E+03  d E =-.185940E-01  mag=    66.0000
       N       E                     dE             d eps       ncg     rms          ort
SDA:   1    -0.806908636272E+03    0.16395E+01    0.00000E+00  2208   0.668E+01 0.000E+00
CGA:   2    -0.807625018611E+03   -0.71638E+00   -0.72159E+00  2208   0.139E+02-0.852E-01
CGA:   3    -0.807991101205E+03   -0.36608E+00   -0.36563E+00  2208   0.469E+01 0.687E-02
CGA:   4    -0.808158698366E+03   -0.16760E+00   -0.16799E+00  2208   0.207E+01 0.338E-02
CGA:   5    -0.808361872441E+03   -0.20317E+00   -0.20168E+00  2208   0.241E+01 0.306E-01
CGA:   6    -0.808460569635E+03   -0.98697E-01   -0.98986E-01  2208   0.134E+01 0.521E-02
CGA:   7    -0.808501130867E+03   -0.40561E-01   -0.40096E-01  2208   0.459E+00 0.536E-02
CGA:   8    -0.808518597577E+03   -0.17467E-01   -0.17500E-01  2208   0.299E+00 0.467E-03
CGA:   9    -0.808538188646E+03   -0.19591E-01   -0.19574E-01  2208   0.288E+00 0.883E-03
CGA:  10    -0.808549343527E+03   -0.11155E-01   -0.11146E-01  2208   0.153E+00-0.777E-04
CGA:  11    -0.808553099771E+03   -0.37562E-02   -0.37629E-02  2208   0.332E-01-0.103E-03
CGA:  12    -0.808555406114E+03   -0.23063E-02   -0.23051E-02  2208   0.303E-01 0.554E-04
CGA:  13    -0.808557958640E+03   -0.25525E-02   -0.25506E-02  2208   0.289E-01 0.550E-04
CGA:  14    -0.808559060275E+03   -0.11016E-02   -0.11025E-02  2208   0.194E-01 0.220E-04
CGA:  15    -0.808559606046E+03   -0.54577E-03   -0.54595E-03  2208   0.619E-02 0.437E-05
CGA:  16    -0.808560143407E+03   -0.53736E-03   -0.53691E-03  2208   0.103E-01 0.118E-04
CGA:  17    -0.808560761372E+03   -0.61797E-03   -0.61779E-03  2208   0.110E-01 0.145E-04
CGA:  18    -0.808561183551E+03   -0.42218E-03   -0.42209E-03  2208   0.513E-02-0.251E-05
CGA:  19    -0.808561351925E+03   -0.16837E-03   -0.16839E-03  2208   0.292E-02 0.799E-07
CGA:  20    -0.808561710590E+03   -0.35867E-03   -0.35822E-03  2208   0.497E-02 0.658E-05
CGA:  21    -0.808561956949E+03   -0.24636E-03   -0.24641E-03  2208   0.383E-02 0.660E-05
CGA:  22    -0.808562076045E+03   -0.11910E-03   -0.11920E-03  2208   0.206E-02 0.207E-05
CGA:  23    -0.808562168403E+03   -0.92358E-04   -0.92382E-04  2208   0.110E-02 0.302E-05
CGA:  24    -0.808562273260E+03   -0.10486E-03   -0.10454E-03  2208   0.178E-02 0.724E-05
CGA:  25    -0.808562361879E+03   -0.88618E-04   -0.88640E-04  2208   0.788E-03 0.448E-05
CGA:  26    -0.808562390825E+03   -0.28946E-04   -0.28956E-04  2208   0.595E-03 0.731E-06
CGA:  27    -0.808562414570E+03   -0.23745E-04   -0.23753E-04  2208   0.448E-03 0.619E-06
CGA:  28    -0.808562457609E+03   -0.43039E-04   -0.43046E-04  2208   0.470E-03-0.963E-07
CGA:  29    -0.808562481799E+03   -0.24190E-04   -0.24188E-04  2208   0.447E-03-0.512E-06
CGA:  30    -0.808562495310E+03   -0.13511E-04   -0.13509E-04  2208   0.163E-03-0.205E-06
CGA:  31    -0.808562506409E+03   -0.11099E-04   -0.11104E-04  2208   0.220E-03-0.303E-06
SDA:  32    -0.808562520093E+03   -0.13684E-04   -0.13691E-04  2208   0.209E-03-0.844E-06
CGA:  33    -0.808562525295E+03   -0.52026E-05   -0.52011E-05  2208   0.816E-04 0.247E-07
  10 F= -.80856253E+03 E0= -.80851172E+03  d E =-.144193E-01  mag=    66.0000
       N       E                     dE             d eps       ncg     rms          ort
SDA:   1    -0.797783276987E+03    0.10779E+02    0.00000E+00  2208   0.458E+02 0.000E+00
CGA:   2    -0.801708551669E+03   -0.39253E+01   -0.38153E+01  2208   0.684E+02 0.302E+01
CGA:   3    -0.804825779091E+03   -0.31172E+01   -0.30150E+01  2208   0.382E+02-0.114E+01
CGA:   4    -0.805986381750E+03   -0.11606E+01   -0.11877E+01  2208   0.142E+02-0.360E+00
CGA:   5    -0.807047224287E+03   -0.10608E+01   -0.10432E+01  2208   0.146E+02 0.627E+00
CGA:   6    -0.807751633502E+03   -0.70441E+00   -0.69225E+00  2208   0.137E+02-0.506E+00
CGA:   7    -0.808139098557E+03   -0.38747E+00   -0.38654E+00  2208   0.398E+01 0.441E-01
CGA:   8    -0.808301238293E+03   -0.16214E+00   -0.16315E+00  2208   0.176E+01 0.221E-01
CGA:   9    -0.808389180864E+03   -0.87943E-01   -0.87888E-01  2208   0.247E+01-0.161E-01
CGA:  10    -0.808481437018E+03   -0.92256E-01   -0.92463E-01  2208   0.105E+01 0.300E-02
CGA:  11    -0.808522447013E+03   -0.41010E-01   -0.41020E-01  2208   0.335E+00 0.309E-03
CGA:  12    -0.808534641940E+03   -0.12195E-01   -0.12174E-01  2208   0.273E+00-0.977E-04
CGA:  13    -0.808546596883E+03   -0.11955E-01   -0.11965E-01  2208   0.233E+00 0.742E-03
CGA:  14    -0.808560518211E+03   -0.13921E-01   -0.13905E-01  2208   0.164E+00 0.104E-02
CGA:  15    -0.808566319413E+03   -0.58012E-02   -0.58016E-02  2208   0.761E-01 0.498E-04
CGA:  16    -0.808569005506E+03   -0.26861E-02   -0.26894E-02  2208   0.587E-01 0.506E-04
CGA:  17    -0.808573102133E+03   -0.40966E-02   -0.40908E-02  2208   0.693E-01 0.209E-03
CGA:  18    -0.808577064331E+03   -0.39622E-02   -0.39560E-02  2208   0.566E-01 0.508E-03
CGA:  19    -0.808578722536E+03   -0.16582E-02   -0.16590E-02  2208   0.259E-01 0.517E-05
CGA:  20    -0.808580316619E+03   -0.15941E-02   -0.15939E-02  2208   0.280E-01 0.131E-04
CGA:  21    -0.808582637586E+03   -0.23210E-02   -0.23125E-02  2208   0.378E-01 0.228E-03
CGA:  22    -0.808583834220E+03   -0.11966E-02   -0.11972E-02  2208   0.181E-01 0.473E-05
CGA:  23    -0.808584633393E+03   -0.79917E-03   -0.79971E-03  2208   0.990E-02 0.401E-04
CGA:  24    -0.808585548082E+03   -0.91469E-03   -0.91309E-03  2208   0.132E-01 0.375E-04
CGA:  25    -0.808586074917E+03   -0.52684E-03   -0.52699E-03  2208   0.110E-01 0.937E-05
CGA:  26    -0.808586530767E+03   -0.45585E-03   -0.45626E-03  2208   0.450E-02 0.176E-04
CGA:  27    -0.808586787901E+03   -0.25713E-03   -0.25709E-03  2208   0.367E-02 0.547E-05
CGA:  28    -0.808587041953E+03   -0.25405E-03   -0.25400E-03  2208   0.548E-02 0.295E-05
CGA:  29    -0.808587260281E+03   -0.21833E-03   -0.21840E-03  2208   0.327E-02 0.336E-05
CGA:  30    -0.808587403497E+03   -0.14322E-03   -0.14320E-03  2208   0.173E-02-0.139E-05
CGA:  31    -0.808587511297E+03   -0.10780E-03   -0.10779E-03  2208   0.158E-02 0.466E-06
SDA:  32    -0.808587605402E+03   -0.94105E-04   -0.94121E-04  2208   0.214E-02-0.203E-05
CGA:  33    -0.808587647747E+03   -0.42345E-04   -0.42297E-04  2208   0.525E-03 0.361E-06
CGA:  34    -0.808587692190E+03   -0.44443E-04   -0.44497E-04  2208   0.746E-03-0.169E-05
CGA:  35    -0.808587755627E+03   -0.63437E-04   -0.63563E-04  2208   0.857E-03-0.398E-05
CGA:  36    -0.808587804428E+03   -0.48801E-04   -0.48810E-04  2208   0.437E-03-0.272E-05
CGA:  37    -0.808587822181E+03   -0.17753E-04   -0.17745E-04  2208   0.309E-03-0.667E-06
CGA:  38    -0.808587837120E+03   -0.14939E-04   -0.14940E-04  2208   0.289E-03-0.114E-06
CGA:  39    -0.808587861876E+03   -0.24756E-04   -0.24763E-04  2208   0.420E-03-0.358E-06
CGA:  40    -0.808587892516E+03   -0.30640E-04   -0.30634E-04  2208   0.269E-03 0.271E-06
CGA:  41    -0.808587904431E+03   -0.11915E-04   -0.11914E-04  2208   0.870E-04-0.233E-06
CGA:  42    -0.808587912516E+03   -0.80845E-05   -0.80912E-05  2208   0.147E-03-0.287E-06
  11 F= -.80858791E+03 E0= -.80854212E+03  d E =-.253872E-01  mag=    66.0000
       N       E                     dE             d eps       ncg     rms          ort
SDA:   1    -0.788872312005E+03    0.19716E+02    0.00000E+00  2208   0.869E+02 0.000E+00
CGA:   2    -0.795845893132E+03   -0.69736E+01   -0.68059E+01  2208   0.101E+03 0.645E+01
CGA:   3    -0.802019203376E+03   -0.61733E+01   -0.61540E+01  2208   0.635E+02-0.781E+01
CGA:   4    -0.804114012696E+03   -0.20948E+01   -0.16670E+01  2208   0.187E+02 0.117E+02
CGA:   5    -0.805481751109E+03   -0.13677E+01   -0.13723E+01  2208   0.361E+02-0.487E+00
CGA:   6    -0.806815980914E+03   -0.13342E+01   -0.13391E+01  2208   0.291E+02 0.171E+00
CGA:   7    -0.807637714091E+03   -0.82173E+00   -0.79980E+00  2208   0.147E+02 0.320E+00
CGA:   8    -0.807945789824E+03   -0.30808E+00   -0.30535E+00  2208   0.609E+01 0.929E-01
CGA:   9    -0.808135519604E+03   -0.18973E+00   -0.19398E+00  2208   0.402E+01-0.244E-01
CGA:  10    -0.808246717737E+03   -0.11120E+00   -0.11330E+00  2208   0.305E+01-0.252E-01
CGA:  11    -0.808397215068E+03   -0.15050E+00   -0.15051E+00  2208   0.311E+01 0.669E-02
CGA:  12    -0.808480361333E+03   -0.83146E-01   -0.83814E-01  2208   0.147E+01-0.691E-02
CGA:  13    -0.808519336445E+03   -0.38975E-01   -0.39559E-01  2208   0.492E+00-0.799E-02
CGA:  14    -0.808535594476E+03   -0.16258E-01   -0.16366E-01  2208   0.433E+00 0.587E-03
CGA:  15    -0.808552935761E+03   -0.17341E-01   -0.17367E-01  2208   0.373E+00 0.121E-02
CGA:  16    -0.808574654461E+03   -0.21719E-01   -0.21664E-01  2208   0.489E+00 0.351E-02
CGA:  17    -0.808588730183E+03   -0.14076E-01   -0.14181E-01  2208   0.196E+00-0.721E-03
CGA:  18    -0.808596493352E+03   -0.77632E-02   -0.77747E-02  2208   0.114E+00 0.563E-03
CGA:  19    -0.808600121564E+03   -0.36282E-02   -0.36328E-02  2208   0.814E-01 0.107E-03
CGA:  20    -0.808604834129E+03   -0.47126E-02   -0.47095E-02  2208   0.102E+00 0.173E-03
CGA:  21    -0.808609884396E+03   -0.50503E-02   -0.50457E-02  2208   0.125E+00 0.831E-03
CGA:  22    -0.808614635949E+03   -0.47516E-02   -0.47559E-02  2208   0.454E-01 0.134E-03
CGA:  23    -0.808616329631E+03   -0.16937E-02   -0.16942E-02  2208   0.382E-01 0.195E-04
CGA:  24    -0.808618050128E+03   -0.17205E-02   -0.17206E-02  2208   0.324E-01 0.120E-03
CGA:  25    -0.808620184545E+03   -0.21344E-02   -0.21307E-02  2208   0.442E-01 0.149E-03
CGA:  26    -0.808621803700E+03   -0.16192E-02   -0.16202E-02  2208   0.264E-01 0.404E-04
CGA:  27    -0.808622883373E+03   -0.10797E-02   -0.10802E-02  2208   0.130E-01 0.427E-04
CGA:  28    -0.808623492121E+03   -0.60875E-03   -0.60875E-03  2208   0.149E-01 0.277E-05
CGA:  29    -0.808624320479E+03   -0.82836E-03   -0.82880E-03  2208   0.160E-01-0.385E-04
CGA:  30    -0.808625042251E+03   -0.72177E-03   -0.72181E-03  2208   0.905E-02 0.196E-04
CGA:  31    -0.808625399174E+03   -0.35692E-03   -0.35717E-03  2208   0.700E-02 0.147E-04
SDA:  32    -0.808625722908E+03   -0.32373E-03   -0.32373E-03  2208   0.444E-02 0.232E-05
CGA:  33    -0.808625909099E+03   -0.18619E-03   -0.18620E-03  2208   0.327E-02 0.275E-05
CGA:  34    -0.808626103693E+03   -0.19459E-03   -0.19457E-03  2208   0.372E-02 0.228E-05
CGA:  35    -0.808626325356E+03   -0.22166E-03   -0.22161E-03  2208   0.347E-02 0.361E-05
CGA:  36    -0.808626502923E+03   -0.17757E-03   -0.17756E-03  2208   0.155E-02 0.478E-06
CGA:  37    -0.808626579277E+03   -0.76354E-04   -0.76357E-04  2208   0.139E-02-0.307E-05
CGA:  38    -0.808626674179E+03   -0.94902E-04   -0.95130E-04  2208   0.133E-02-0.108E-04
CGA:  39    -0.808626772044E+03   -0.97865E-04   -0.98106E-04  2208   0.941E-03-0.954E-05
CGA:  40    -0.808626825549E+03   -0.53504E-04   -0.53530E-04  2208   0.481E-03-0.352E-05
CGA:  41    -0.808626872524E+03   -0.46976E-04   -0.46838E-04  2208   0.550E-03 0.267E-05
CGA:  42    -0.808626929260E+03   -0.56736E-04   -0.56368E-04  2208   0.724E-03 0.736E-05
CGA:  43    -0.808626953904E+03   -0.24645E-04   -0.24697E-04  2208   0.358E-03 0.263E-05
CGA:  44    -0.808626974801E+03   -0.20896E-04   -0.20889E-04  2208   0.244E-03 0.121E-05
CGA:  45    -0.808626992767E+03   -0.17966E-04   -0.17992E-04  2208   0.389E-03-0.133E-05
CGA:  46    -0.808627017624E+03   -0.24857E-04   -0.24878E-04  2208   0.408E-03-0.233E-05
CGA:  47    -0.808627040100E+03   -0.22476E-04   -0.22477E-04  2208   0.131E-03-0.213E-05
CGA:  48    -0.808627050703E+03   -0.10603E-04   -0.10554E-04  2208   0.106E-03 0.181E-05
CGA:  49    -0.808627062520E+03   -0.11817E-04   -0.11540E-04  2208   0.139E-03 0.546E-05
CGA:  50    -0.808627070989E+03   -0.84689E-05   -0.84743E-05  2208   0.142E-03 0.399E-05
  12 F= -.80862707E+03 E0= -.80858682E+03  d E =-.391585E-01  mag=    66.0000
       N       E                     dE             d eps       ncg     rms          ort
SDA:   1    -0.804946019022E+03    0.36810E+01    0.00000E+00  2208   0.131E+02 0.000E+00
CGA:   2    -0.806199364945E+03   -0.12533E+01   -0.12800E+01  2208   0.297E+02-0.550E+00
CGA:   3    -0.807390804820E+03   -0.11914E+01   -0.11939E+01  2208   0.891E+01-0.449E-01
CGA:   4    -0.807790200476E+03   -0.39940E+00   -0.39214E+00  2208   0.559E+01-0.420E-01
CGA:   5    -0.808147761337E+03   -0.35756E+00   -0.35942E+00  2208   0.787E+01-0.181E+00
CGA:   6    -0.808417818616E+03   -0.27006E+00   -0.27652E+00  2208   0.269E+01-0.252E-01
CGA:   7    -0.808520729967E+03   -0.10291E+00   -0.10259E+00  2208   0.760E+00 0.232E-03
CGA:   8    -0.808549369812E+03   -0.28640E-01   -0.28336E-01  2208   0.661E+00 0.474E-03
CGA:   9    -0.808586430076E+03   -0.37060E-01   -0.37062E-01  2208   0.573E+00-0.232E-02
CGA:  10    -0.808612880549E+03   -0.26450E-01   -0.26501E-01  2208   0.188E+00 0.169E-02
CGA:  11    -0.808619370636E+03   -0.64901E-02   -0.64936E-02  2208   0.101E+00-0.155E-05
CGA:  12    -0.808623189817E+03   -0.38192E-02   -0.38218E-02  2208   0.563E-01 0.289E-04
CGA:  13    -0.808627260132E+03   -0.40703E-02   -0.40653E-02  2208   0.615E-01 0.201E-03
CGA:  14    -0.808630314375E+03   -0.30542E-02   -0.30542E-02  2208   0.468E-01-0.201E-05
CGA:  15    -0.808631908417E+03   -0.15940E-02   -0.15978E-02  2208   0.146E-01-0.105E-04
CGA:  16    -0.808632620018E+03   -0.71160E-03   -0.71178E-03  2208   0.142E-01 0.215E-04
CGA:  17    -0.808633361630E+03   -0.74161E-03   -0.74162E-03  2208   0.137E-01 0.691E-05
CGA:  18    -0.808634430082E+03   -0.10685E-02   -0.10671E-02  2208   0.113E-01 0.490E-04
CGA:  19    -0.808634878949E+03   -0.44887E-03   -0.44876E-03  2208   0.858E-02 0.422E-05
CGA:  20    -0.808635233402E+03   -0.35445E-03   -0.35452E-03  2208   0.412E-02 0.278E-05
CGA:  21    -0.808635573453E+03   -0.34005E-03   -0.33966E-03  2208   0.543E-02 0.103E-04
CGA:  22    -0.808635917199E+03   -0.34375E-03   -0.34375E-03  2208   0.646E-02-0.140E-05
CGA:  23    -0.808636134278E+03   -0.21708E-03   -0.21717E-03  2208   0.220E-02 0.891E-06
CGA:  24    -0.808636264761E+03   -0.13048E-03   -0.13048E-03  2208   0.161E-02-0.424E-06
CGA:  25    -0.808636349943E+03   -0.85182E-04   -0.85182E-04  2208   0.178E-02 0.170E-07
CGA:  26    -0.808636465788E+03   -0.11584E-03   -0.11585E-03  2208   0.160E-02-0.129E-07
CGA:  27    -0.808636530109E+03   -0.64321E-04   -0.64348E-04  2208   0.863E-03-0.734E-07
CGA:  28    -0.808636569121E+03   -0.39012E-04   -0.39027E-04  2208   0.619E-03 0.100E-05
CGA:  29    -0.808636606879E+03   -0.37758E-04   -0.37756E-04  2208   0.617E-03-0.221E-06
CGA:  30    -0.808636654486E+03   -0.47606E-04   -0.47576E-04  2208   0.552E-03 0.104E-05
CGA:  31    -0.808636672790E+03   -0.18304E-04   -0.18333E-04  2208   0.318E-03 0.601E-06
SDA:  32    -0.808636689580E+03   -0.16790E-04   -0.16791E-04  2208   0.172E-03 0.344E-06
CGA:  33    -0.808636698943E+03   -0.93629E-05   -0.93624E-05  2208   0.119E-03-0.319E-06
CGA:  34    -0.808636713398E+03   -0.14455E-04   -0.14504E-04  2208   0.183E-03-0.926E-06
CGA:  35    -0.808636722712E+03   -0.93141E-05   -0.93111E-05  2208   0.132E-03-0.666E-06
  13 F= -.80863672E+03 E0= -.80859758E+03  d E =-.965172E-02  mag=    66.0000
       N       E                     dE             d eps       ncg     rms          ort
SDA:   1    -0.807394117143E+03    0.12426E+01    0.00000E+00  2208   0.505E+01 0.000E+00
CGA:   2    -0.807863199431E+03   -0.46908E+00   -0.46491E+00  2208   0.103E+02 0.106E+00
CGA:   3    -0.808254198469E+03   -0.39100E+00   -0.39083E+00  2208   0.264E+01-0.440E-02
CGA:   4    -0.808367998228E+03   -0.11380E+00   -0.11227E+00  2208   0.170E+01-0.186E-01
CGA:   5    -0.808469282677E+03   -0.10128E+00   -0.10122E+00  2208   0.195E+01 0.872E-02
CGA:   6    -0.808567278047E+03   -0.97995E-01   -0.98073E-01  2208   0.714E+00 0.499E-02
CGA:   7    -0.808597281365E+03   -0.30003E-01   -0.30135E-01  2208   0.209E+00 0.179E-02
CGA:   8    -0.808615349419E+03   -0.18068E-01   -0.18116E-01  2208   0.237E+00-0.130E-02
CGA:   9    -0.808626857080E+03   -0.11508E-01   -0.11522E-01  2208   0.117E+00 0.645E-03
CGA:  10    -0.808631510965E+03   -0.46539E-02   -0.46443E-02  2208   0.324E-01-0.440E-04
CGA:  11    -0.808633253198E+03   -0.17422E-02   -0.17424E-02  2208   0.228E-01 0.374E-04
CGA:  12    -0.808635359746E+03   -0.21065E-02   -0.21077E-02  2208   0.228E-01-0.291E-04
CGA:  13    -0.808636449827E+03   -0.10901E-02   -0.10904E-02  2208   0.118E-01 0.120E-04
CGA:  14    -0.808636912837E+03   -0.46301E-03   -0.46302E-03  2208   0.658E-02 0.301E-05
CGA:  15    -0.808637322806E+03   -0.40997E-03   -0.41004E-03  2208   0.723E-02-0.493E-05
CGA:  16    -0.808637756427E+03   -0.43362E-03   -0.43355E-03  2208   0.855E-02 0.156E-04
CGA:  17    -0.808638194082E+03   -0.43766E-03   -0.43770E-03  2208   0.363E-02 0.910E-05
CGA:  18    -0.808638425478E+03   -0.23140E-03   -0.23132E-03  2208   0.263E-02 0.785E-05
CGA:  19    -0.808638667511E+03   -0.24203E-03   -0.24213E-03  2208   0.373E-02-0.191E-05
CGA:  20    -0.808638873684E+03   -0.20617E-03   -0.20618E-03  2208   0.291E-02 0.172E-05
CGA:  21    -0.808639017797E+03   -0.14411E-03   -0.14409E-03  2208   0.117E-02-0.134E-05
CGA:  22    -0.808639091657E+03   -0.73860E-04   -0.73859E-04  2208   0.978E-03-0.662E-07
CGA:  23    -0.808639148354E+03   -0.56696E-04   -0.56697E-04  2208   0.137E-02 0.173E-06
CGA:  24    -0.808639217705E+03   -0.69351E-04   -0.69340E-04  2208   0.560E-03-0.111E-05
CGA:  25    -0.808639246383E+03   -0.28678E-04   -0.28678E-04  2208   0.332E-03-0.187E-06
CGA:  26    -0.808639263854E+03   -0.17470E-04   -0.17464E-04  2208   0.321E-03-0.123E-05
CGA:  27    -0.808639296099E+03   -0.32245E-04   -0.32327E-04  2208   0.383E-03-0.186E-05
CGA:  28    -0.808639311847E+03   -0.15748E-04   -0.15737E-04  2208   0.113E-03-0.754E-06
CGA:  29    -0.808639321595E+03   -0.97487E-05   -0.97554E-05  2208   0.127E-03-0.217E-06
  14 F= -.80863932E+03 E0= -.80859921E+03  d E =-.259888E-02  mag=    66.0000
       N       E                     dE             d eps       ncg     rms          ort
SDA:   1    -0.807121486579E+03    0.15178E+01    0.00000E+00  2208   0.632E+01 0.000E+00
CGA:   2    -0.807537619550E+03   -0.41613E+00   -0.41906E+00  2208   0.120E+02-0.276E+00
CGA:   3    -0.808126145741E+03   -0.58853E+00   -0.59126E+00  2208   0.356E+01 0.104E+00
CGA:   4    -0.808278750212E+03   -0.15260E+00   -0.15240E+00  2208   0.222E+01-0.307E-02
CGA:   5    -0.808413949375E+03   -0.13520E+00   -0.13522E+00  2208   0.318E+01-0.468E-02
CGA:   6    -0.808557975534E+03   -0.14403E+00   -0.14498E+00  2208   0.780E+00 0.158E-01
CGA:   7    -0.808590706503E+03   -0.32731E-01   -0.32776E-01  2208   0.326E+00 0.832E-04
CGA:   8    -0.808606371858E+03   -0.15665E-01   -0.15648E-01  2208   0.315E+00-0.499E-03
CGA:   9    -0.808621439865E+03   -0.15068E-01   -0.15068E-01  2208   0.182E+00 0.171E-04
CGA:  10    -0.808630258968E+03   -0.88191E-02   -0.88334E-02  2208   0.934E-01 0.592E-03
CGA:  11    -0.808633389882E+03   -0.31309E-02   -0.31207E-02  2208   0.349E-01 0.928E-04
CGA:  12    -0.808635154775E+03   -0.17649E-02   -0.17648E-02  2208   0.228E-01-0.157E-05
CGA:  13    -0.808636840930E+03   -0.16862E-02   -0.16841E-02  2208   0.228E-01 0.757E-04
CGA:  14    -0.808637957059E+03   -0.11161E-02   -0.11161E-02  2208   0.185E-01 0.124E-05
CGA:  15    -0.808638620919E+03   -0.66386E-03   -0.66461E-03  2208   0.643E-02 0.299E-05
CGA:  16    -0.808638978314E+03   -0.35739E-03   -0.35738E-03  2208   0.492E-02 0.103E-04
CGA:  17    -0.808639328118E+03   -0.34980E-03   -0.34971E-03  2208   0.826E-02 0.765E-05
CGA:  18    -0.808639790918E+03   -0.46280E-03   -0.46278E-03  2208   0.460E-02 0.184E-04
CGA:  19    -0.808640048603E+03   -0.25768E-03   -0.25768E-03  2208   0.238E-02 0.757E-05
CGA:  20    -0.808640156744E+03   -0.10814E-03   -0.10816E-03  2208   0.303E-02 0.560E-06
CGA:  21    -0.808640405265E+03   -0.24852E-03   -0.24854E-03  2208   0.259E-02-0.115E-05
CGA:  22    -0.808640550512E+03   -0.14525E-03   -0.14525E-03  2208   0.161E-02 0.163E-05
CGA:  23    -0.808640616187E+03   -0.65675E-04   -0.65683E-04  2208   0.925E-03 0.357E-06
CGA:  24    -0.808640671466E+03   -0.55279E-04   -0.55269E-04  2208   0.814E-03 0.238E-05
CGA:  25    -0.808640738589E+03   -0.67123E-04   -0.66990E-04  2208   0.809E-03 0.446E-05
CGA:  26    -0.808640767079E+03   -0.28491E-04   -0.28494E-04  2208   0.478E-03 0.344E-06
CGA:  27    -0.808640794207E+03   -0.27128E-04   -0.27128E-04  2208   0.285E-03-0.618E-06
CGA:  28    -0.808640813603E+03   -0.19396E-04   -0.19411E-04  2208   0.290E-03-0.157E-05
CGA:  29    -0.808640833339E+03   -0.19736E-04   -0.19765E-04  2208   0.346E-03-0.247E-05
CGA:  30    -0.808640848462E+03   -0.15122E-04   -0.15104E-04  2208   0.129E-03-0.159E-05
CGA:  31    -0.808640855446E+03   -0.69841E-05   -0.69844E-05  2208   0.977E-04-0.240E-06
  15 F= -.80864086E+03 E0= -.80860149E+03  d E =-.153385E-02  mag=    66.0000
       N       E                     dE             d eps       ncg     rms          ort
SDA:   1    -0.793420628428E+03    0.15220E+02    0.00000E+00  2208   0.654E+02 0.000E+00
CGA:   2    -0.797202051938E+03   -0.37814E+01   -0.37928E+01  2208   0.106E+03-0.501E+01
CGA:   3    -0.803130398854E+03   -0.59283E+01   -0.59148E+01  2208   0.397E+02 0.198E+01
CGA:   4    -0.804804630047E+03   -0.16742E+01   -0.15456E+01  2208   0.293E+02 0.292E+00
CGA:   5    -0.805679258212E+03   -0.87463E+00   -0.79894E+00  2208   0.253E+02 0.155E+01
CGA:   6    -0.807097691000E+03   -0.14184E+01   -0.14197E+01  2208   0.299E+02 0.429E+00
CGA:   7    -0.807815019195E+03   -0.71733E+00   -0.67302E+00  2208   0.110E+02 0.163E+01
CGA:   8    -0.808115706883E+03   -0.30069E+00   -0.28333E+00  2208   0.574E+01 0.413E+00
CGA:   9    -0.808241450607E+03   -0.12574E+00   -0.12925E+00  2208   0.280E+01-0.870E-01
CGA:  10    -0.808345046663E+03   -0.10360E+00   -0.10395E+00  2208   0.321E+01 0.594E-02
CGA:  11    -0.808440046989E+03   -0.95000E-01   -0.95814E-01  2208   0.229E+01-0.573E-02
CGA:  12    -0.808523524879E+03   -0.83478E-01   -0.83865E-01  2208   0.155E+01 0.652E-02
CGA:  13    -0.808557564658E+03   -0.34040E-01   -0.35312E-01  2208   0.620E+00-0.284E-01
CGA:  14    -0.808577820173E+03   -0.20256E-01   -0.20335E-01  2208   0.313E+00 0.637E-03
CGA:  15    -0.808586682212E+03   -0.88620E-02   -0.89178E-02  2208   0.241E+00-0.255E-03
CGA:  16    -0.808600001352E+03   -0.13319E-01   -0.13276E-01  2208   0.244E+00 0.289E-02
CGA:  17    -0.808608331394E+03   -0.83300E-02   -0.83964E-02  2208   0.222E+00 0.108E-02
CGA:  18    -0.808617865297E+03   -0.95339E-02   -0.95357E-02  2208   0.889E-01 0.368E-03
CGA:  19    -0.808620662202E+03   -0.27969E-02   -0.28025E-02  2208   0.666E-01 0.590E-04
CGA:  20    -0.808623451220E+03   -0.27890E-02   -0.27920E-02  2208   0.431E-01 0.561E-03
CGA:  21    -0.808625699461E+03   -0.22482E-02   -0.22415E-02  2208   0.675E-01 0.622E-03
CGA:  22    -0.808629428092E+03   -0.37286E-02   -0.37302E-02  2208   0.557E-01-0.805E-04
CGA:  23    -0.808631282014E+03   -0.18539E-02   -0.18613E-02  2208   0.306E-01 0.121E-03
CGA:  24    -0.808632574967E+03   -0.12930E-02   -0.12935E-02  2208   0.183E-01 0.110E-03
CGA:  25    -0.808633425483E+03   -0.85052E-03   -0.85055E-03  2208   0.218E-01-0.840E-05
CGA:  26    -0.808634478461E+03   -0.10530E-02   -0.10527E-02  2208   0.171E-01 0.479E-04
CGA:  27    -0.808635449582E+03   -0.97112E-03   -0.97008E-03  2208   0.154E-01 0.607E-04
CGA:  28    -0.808635900009E+03   -0.45043E-03   -0.45066E-03  2208   0.668E-02 0.593E-05
CGA:  29    -0.808636271379E+03   -0.37137E-03   -0.37122E-03  2208   0.585E-02 0.112E-04
CGA:  30    -0.808636576003E+03   -0.30462E-03   -0.30441E-03  2208   0.735E-02 0.218E-04
CGA:  31    -0.808636893846E+03   -0.31784E-03   -0.31786E-03  2208   0.425E-02 0.600E-05
SDA:  32    -0.808637094100E+03   -0.20025E-03   -0.20027E-03  2208   0.316E-02-0.372E-05
CGA:  33    -0.808637181709E+03   -0.87608E-04   -0.87654E-04  2208   0.117E-02-0.356E-05
CGA:  34    -0.808637307998E+03   -0.12629E-03   -0.12738E-03  2208   0.241E-02-0.180E-04
CGA:  35    -0.808637429430E+03   -0.12143E-03   -0.12148E-03  2208   0.176E-02-0.137E-04
CGA:  36    -0.808637503010E+03   -0.73580E-04   -0.73554E-04  2208   0.892E-03-0.492E-05
CGA:  37    -0.808637575357E+03   -0.72347E-04   -0.72287E-04  2208   0.787E-03 0.151E-05
CGA:  38    -0.808637650813E+03   -0.75456E-04   -0.75224E-04  2208   0.699E-03 0.475E-05
CGA:  39    -0.808637705395E+03   -0.54582E-04   -0.54537E-04  2208   0.326E-03 0.131E-05
CGA:  40    -0.808637729970E+03   -0.24575E-04   -0.24617E-04  2208   0.618E-03-0.228E-05
CGA:  41    -0.808637759927E+03   -0.29956E-04   -0.29933E-04  2208   0.402E-03-0.481E-05
CGA:  42    -0.808637790474E+03   -0.30548E-04   -0.30655E-04  2208   0.328E-03-0.478E-05
CGA:  43    -0.808637804635E+03   -0.14161E-04   -0.14149E-04  2208   0.187E-03-0.119E-05
CGA:  44    -0.808637817002E+03   -0.12366E-04   -0.12365E-04  2208   0.157E-03-0.159E-06
CGA:  45    -0.808637836364E+03   -0.19363E-04   -0.19195E-04  2208   0.201E-03 0.220E-05
CGA:  46    -0.808637846778E+03   -0.10414E-04   -0.10425E-04  2208   0.173E-03 0.134E-05
CGA:  47    -0.808637852959E+03   -0.61804E-05   -0.62099E-05  2208   0.708E-04 0.112E-05
  16 F= -.80863785E+03 E0= -.80860139E+03  d E =0.300249E-02  mag=    66.0000
       N       E                     dE             d eps       ncg     rms          ort
SDA:   1    -0.806017198301E+03    0.26206E+01    0.00000E+00  2208   0.962E+01 0.000E+00
CGA:   2    -0.807350971944E+03   -0.13338E+01   -0.13137E+01  2208   0.131E+02 0.273E+00
CGA:   3    -0.807819197176E+03   -0.46823E+00   -0.45566E+00  2208   0.474E+01 0.130E+00
CGA:   4    -0.808048491244E+03   -0.22929E+00   -0.22708E+00  2208   0.492E+01-0.322E-01
CGA:   5    -0.808378632613E+03   -0.33014E+00   -0.32957E+00  2208   0.360E+01 0.513E-01
CGA:   6    -0.808509577212E+03   -0.13094E+00   -0.13187E+00  2208   0.117E+01-0.215E-02
CGA:   7    -0.808558748161E+03   -0.49171E-01   -0.49405E-01  2208   0.469E+00 0.136E-02
CGA:   8    -0.808590517481E+03   -0.31769E-01   -0.31706E-01  2208   0.574E+00 0.479E-02
CGA:   9    -0.808612074123E+03   -0.21557E-01   -0.21402E-01  2208   0.279E+00 0.864E-03
CGA:  10    -0.808624488537E+03   -0.12414E-01   -0.12440E-01  2208   0.650E-01 0.388E-03
CGA:  11    -0.808628757585E+03   -0.42690E-02   -0.42633E-02  2208   0.450E-01 0.456E-03
CGA:  12    -0.808631859160E+03   -0.31016E-02   -0.31042E-02  2208   0.768E-01-0.156E-03
CGA:  13    -0.808634669033E+03   -0.28099E-02   -0.28156E-02  2208   0.184E-01-0.193E-04
CGA:  14    -0.808635773929E+03   -0.11049E-02   -0.11048E-02  2208   0.989E-02 0.204E-04
CGA:  15    -0.808636532426E+03   -0.75850E-03   -0.75925E-03  2208   0.155E-01-0.272E-04
CGA:  16    -0.808637250001E+03   -0.71757E-03   -0.71797E-03  2208   0.135E-01 0.170E-04
CGA:  17    -0.808637888264E+03   -0.63826E-03   -0.63839E-03  2208   0.525E-02 0.101E-04
CGA:  18    -0.808638258673E+03   -0.37041E-03   -0.37033E-03  2208   0.408E-02 0.534E-05
CGA:  19    -0.808638580496E+03   -0.32182E-03   -0.32160E-03  2208   0.824E-02 0.893E-05
CGA:  20    -0.808638923728E+03   -0.34323E-03   -0.34341E-03  2208   0.400E-02 0.231E-05
CGA:  21    -0.808639163867E+03   -0.24014E-03   -0.24014E-03  2208   0.183E-02-0.873E-06
CGA:  22    -0.808639292112E+03   -0.12824E-03   -0.12824E-03  2208   0.178E-02-0.796E-07
CGA:  23    -0.808639392001E+03   -0.99889E-04   -0.99878E-04  2208   0.256E-02-0.295E-05
CGA:  24    -0.808639525345E+03   -0.13334E-03   -0.13334E-03  2208   0.103E-02-0.178E-05
CGA:  25    -0.808639574888E+03   -0.49543E-04   -0.49540E-04  2208   0.611E-03-0.878E-06
CGA:  26    -0.808639614360E+03   -0.39472E-04   -0.39483E-04  2208   0.753E-03-0.138E-05
CGA:  27    -0.808639665785E+03   -0.51425E-04   -0.51432E-04  2208   0.728E-03-0.105E-05
CGA:  28    -0.808639700988E+03   -0.35204E-04   -0.35196E-04  2208   0.448E-03-0.669E-06
CGA:  29    -0.808639715831E+03   -0.14842E-04   -0.14847E-04  2208   0.211E-03 0.165E-07
CGA:  30    -0.808639736805E+03   -0.20974E-04   -0.20969E-04  2208   0.199E-03-0.973E-07
CGA:  31    -0.808639755986E+03   -0.19182E-04   -0.19185E-04  2208   0.251E-03-0.144E-06
SDA:  32    -0.808639763587E+03   -0.76004E-05   -0.76029E-05  2208   0.943E-04 0.165E-07
  17 F= -.80863976E+03 E0= -.80860219E+03  d E =-.191063E-02  mag=    66.0000
       N       E                     dE             d eps       ncg     rms          ort
SDA:   1    -0.807940886960E+03    0.69887E+00    0.00000E+00  2208   0.285E+01 0.000E+00
CGA:   2    -0.808158026410E+03   -0.21714E+00   -0.21799E+00  2208   0.649E+01-0.324E-01
CGA:   3    -0.808415357961E+03   -0.25733E+00   -0.25828E+00  2208   0.128E+01 0.163E-02
CGA:   4    -0.808492300986E+03   -0.76943E-01   -0.76982E-01  2208   0.983E+00-0.997E-02
CGA:   5    -0.808594671518E+03   -0.10237E+00   -0.10195E+00  2208   0.767E+00 0.854E-02
CGA:   6    -0.808617368505E+03   -0.22697E-01   -0.22698E-01  2208   0.245E+00-0.995E-04
CGA:   7    -0.808628488152E+03   -0.11120E-01   -0.11107E-01  2208   0.152E+00-0.143E-03
CGA:   8    -0.808636682800E+03   -0.81946E-02   -0.82005E-02  2208   0.125E+00 0.657E-03
CGA:   9    -0.808642883038E+03   -0.62002E-02   -0.61989E-02  2208   0.608E-01 0.848E-05
CGA:  10    -0.808645667587E+03   -0.27845E-02   -0.27862E-02  2208   0.135E-01 0.531E-04
CGA:  11    -0.808646694254E+03   -0.10267E-02   -0.10267E-02  2208   0.132E-01 0.144E-05
CGA:  12    -0.808647609091E+03   -0.91484E-03   -0.91490E-03  2208   0.156E-01 0.335E-05
CGA:  13    -0.808648123194E+03   -0.51410E-03   -0.51487E-03  2208   0.514E-02 0.259E-05
CGA:  14    -0.808648405081E+03   -0.28189E-03   -0.28190E-03  2208   0.259E-02 0.386E-05
CGA:  15    -0.808648614969E+03   -0.20989E-03   -0.20988E-03  2208   0.362E-02 0.186E-05
CGA:  16    -0.808648848127E+03   -0.23316E-03   -0.23318E-03  2208   0.280E-02-0.160E-05
CGA:  17    -0.808648990907E+03   -0.14278E-03   -0.14280E-03  2208   0.164E-02 0.118E-05
CGA:  18    -0.808649096161E+03   -0.10525E-03   -0.10525E-03  2208   0.117E-02 0.803E-06
CGA:  19    -0.808649166311E+03   -0.70150E-04   -0.70151E-04  2208   0.202E-02-0.215E-06
CGA:  20    -0.808649286893E+03   -0.12058E-03   -0.12058E-03  2208   0.887E-03 0.232E-05
CGA:  21    -0.808649344976E+03   -0.58083E-04   -0.58076E-04  2208   0.368E-03 0.901E-06
CGA:  22    -0.808649383036E+03   -0.38060E-04   -0.38034E-04  2208   0.508E-03 0.531E-06
CGA:  23    -0.808649410266E+03   -0.27230E-04   -0.27231E-04  2208   0.449E-03 0.514E-06
CGA:  24    -0.808649431969E+03   -0.21703E-04   -0.21708E-04  2208   0.179E-03 0.366E-06
CGA:  25    -0.808649439716E+03   -0.77467E-05   -0.77531E-05  2208   0.156E-03 0.197E-06
CGA:  26    -0.808649450498E+03   -0.10782E-04   -0.10783E-04  2208   0.184E-03-0.163E-06
CGA:  27    -0.808649462910E+03   -0.12413E-04   -0.12411E-04  2208   0.871E-04-0.260E-07
CGA:  28    -0.808649468668E+03   -0.57579E-05   -0.57593E-05  2208   0.500E-04-0.357E-06
  18 F= -.80864947E+03 E0= -.80861188E+03  d E =-.970508E-02  mag=    66.0000
       N       E                     dE             d eps       ncg     rms          ort
SDA:   1    -0.808359540040E+03    0.28992E+00    0.00000E+00  2208   0.101E+01 0.000E+00
CGA:   2    -0.808494242592E+03   -0.13470E+00   -0.13515E+00  2208   0.168E+01-0.624E-02
CGA:   3    -0.808559987229E+03   -0.65745E-01   -0.66406E-01  2208   0.571E+00-0.387E-02
CGA:   4    -0.808584320183E+03   -0.24333E-01   -0.24482E-01  2208   0.547E+00 0.115E-03
CGA:   5    -0.808624363495E+03   -0.40043E-01   -0.40005E-01  2208   0.388E+00 0.257E-02
CGA:   6    -0.808639411713E+03   -0.15048E-01   -0.14969E-01  2208   0.112E+00 0.635E-03
CGA:   7    -0.808643740367E+03   -0.43287E-02   -0.43561E-02  2208   0.476E-01-0.115E-03
CGA:   8    -0.808647920766E+03   -0.41804E-02   -0.41809E-02  2208   0.367E-01-0.133E-04
CGA:   9    -0.808650082742E+03   -0.21620E-02   -0.21625E-02  2208   0.170E-01 0.571E-04
CGA:  10    -0.808650615977E+03   -0.53323E-03   -0.53205E-03  2208   0.776E-02 0.262E-04
CGA:  11    -0.808651041669E+03   -0.42569E-03   -0.42571E-03  2208   0.478E-02 0.523E-05
CGA:  12    -0.808651387541E+03   -0.34587E-03   -0.34578E-03  2208   0.430E-02 0.973E-05
CGA:  13    -0.808651617004E+03   -0.22946E-03   -0.22950E-03  2208   0.249E-02 0.573E-05
CGA:  14    -0.808651718419E+03   -0.10142E-03   -0.10145E-03  2208   0.827E-03 0.927E-06
CGA:  15    -0.808651797542E+03   -0.79122E-04   -0.79094E-04  2208   0.145E-02 0.771E-06
CGA:  16    -0.808651860662E+03   -0.63121E-04   -0.63090E-04  2208   0.104E-02-0.821E-06
CGA:  17    -0.808651916080E+03   -0.55418E-04   -0.55422E-04  2208   0.511E-03 0.191E-06
CGA:  18    -0.808651949813E+03   -0.33733E-04   -0.33733E-04  2208   0.328E-03 0.907E-08
CGA:  19    -0.808651983815E+03   -0.34002E-04   -0.33957E-04  2208   0.577E-03 0.116E-05
CGA:  20    -0.808652009459E+03   -0.25643E-04   -0.25643E-04  2208   0.316E-03 0.432E-06
CGA:  21    -0.808652028673E+03   -0.19214E-04   -0.19216E-04  2208   0.202E-03 0.391E-06
CGA:  22    -0.808652036058E+03   -0.73851E-05   -0.73851E-05  2208   0.135E-03 0.339E-07
CGA:  23    -0.808652048859E+03   -0.12801E-04   -0.12800E-04  2208   0.125E-03 0.733E-07
CGA:  24    -0.808652058560E+03   -0.97013E-05   -0.97004E-05  2208   0.840E-04 0.830E-07
  19 F= -.80865206E+03 E0= -.80861475E+03  d E =-.258989E-02  mag=    66.0000
       N       E                     dE             d eps       ncg     rms          ort
SDA:   1    -0.797427867853E+03    0.11224E+02    0.00000E+00  2208   0.502E+02 0.000E+00
CGA:   2    -0.800023834865E+03   -0.25960E+01   -0.25777E+01  2208   0.765E+02-0.107E+01
CGA:   3    -0.804324057724E+03   -0.43002E+01   -0.43062E+01  2208   0.347E+02 0.638E+00
CGA:   4    -0.805641112966E+03   -0.13171E+01   -0.13471E+01  2208   0.201E+02-0.156E+00
CGA:   5    -0.806603933973E+03   -0.96282E+00   -0.94044E+00  2208   0.207E+02-0.338E+00
CGA:   6    -0.807720741122E+03   -0.11168E+01   -0.11192E+01  2208   0.174E+02 0.212E+00
CGA:   7    -0.808201179516E+03   -0.48044E+00   -0.44981E+00  2208   0.372E+01 0.838E+00
CGA:   8    -0.808370175517E+03   -0.16900E+00   -0.16681E+00  2208   0.241E+01-0.211E-01
CGA:   9    -0.808440665409E+03   -0.70490E-01   -0.71431E-01  2208   0.165E+01-0.144E-01
CGA:  10    -0.808542648649E+03   -0.10198E+00   -0.10177E+00  2208   0.120E+01 0.212E-01
CGA:  11    -0.808591987644E+03   -0.49339E-01   -0.50002E-01  2208   0.708E+00 0.707E-02
CGA:  12    -0.808609393251E+03   -0.17406E-01   -0.17532E-01  2208   0.178E+00-0.303E-02
CGA:  13    -0.808622304858E+03   -0.12912E-01   -0.12894E-01  2208   0.173E+00 0.697E-03
CGA:  14    -0.808632301068E+03   -0.99962E-02   -0.99864E-02  2208   0.229E+00 0.197E-02
CGA:  15    -0.808640527827E+03   -0.82268E-02   -0.82719E-02  2208   0.757E-01-0.254E-04
CGA:  16    -0.808644009708E+03   -0.34819E-02   -0.34835E-02  2208   0.360E-01 0.739E-04
CGA:  17    -0.808645892337E+03   -0.18826E-02   -0.18829E-02  2208   0.424E-01 0.110E-03
CGA:  18    -0.808648870324E+03   -0.29780E-02   -0.29756E-02  2208   0.402E-01 0.953E-04
CGA:  19    -0.808650537654E+03   -0.16673E-02   -0.16690E-02  2208   0.313E-01 0.378E-04
CGA:  20    -0.808651962600E+03   -0.14249E-02   -0.14264E-02  2208   0.103E-01 0.668E-04
CGA:  21    -0.808652900473E+03   -0.93787E-03   -0.93501E-03  2208   0.166E-01 0.662E-04
CGA:  22    -0.808653741555E+03   -0.84108E-03   -0.84127E-03  2208   0.174E-01 0.226E-04
CGA:  23    -0.808654520301E+03   -0.77875E-03   -0.77935E-03  2208   0.716E-02 0.219E-04
CGA:  24    -0.808654950366E+03   -0.43006E-03   -0.42991E-03  2208   0.370E-02 0.165E-04
CGA:  25    -0.808655202864E+03   -0.25250E-03   -0.25251E-03  2208   0.640E-02-0.136E-05
CGA:  26    -0.808655516976E+03   -0.31411E-03   -0.31415E-03  2208   0.396E-02 0.209E-05
CGA:  27    -0.808655738543E+03   -0.22157E-03   -0.22157E-03  2208   0.254E-02-0.181E-05
CGA:  28    -0.808655848546E+03   -0.11000E-03   -0.10999E-03  2208   0.158E-02-0.144E-05
CGA:  29    -0.808655973517E+03   -0.12497E-03   -0.12495E-03  2208   0.193E-02 0.225E-06
CGA:  30    -0.808656083027E+03   -0.10951E-03   -0.10951E-03  2208   0.191E-02-0.616E-06
CGA:  31    -0.808656148909E+03   -0.65881E-04   -0.65900E-04  2208   0.602E-03-0.146E-06
SDA:  32    -0.808656200341E+03   -0.51433E-04   -0.51458E-04  2208   0.628E-03-0.157E-05
CGA:  33    -0.808656224973E+03   -0.24632E-04   -0.24618E-04  2208   0.305E-03-0.165E-05
CGA:  34    -0.808656245578E+03   -0.20605E-04   -0.20624E-04  2208   0.569E-03-0.217E-05
CGA:  35    -0.808656283093E+03   -0.37515E-04   -0.37561E-04  2208   0.403E-03-0.467E-05
CGA:  36    -0.808656304857E+03   -0.21764E-04   -0.21760E-04  2208   0.191E-03-0.224E-05
CGA:  37    -0.808656314095E+03   -0.92375E-05   -0.92368E-05  2208   0.175E-03-0.489E-06
CGA:  38    -0.808656332704E+03   -0.18609E-04   -0.18571E-04  2208   0.207E-03 0.404E-06
CGA:  39    -0.808656353744E+03   -0.21041E-04   -0.21006E-04  2208   0.151E-03 0.536E-06
CGA:  40    -0.808656361484E+03   -0.77401E-05   -0.77312E-05  2208   0.142E-03-0.113E-05
  20 F= -.80865636E+03 E0= -.80862000E+03  d E =-.430292E-02  mag=    66.0000
       N       E                     dE             d eps       ncg     rms          ort
SDA:   1    -0.807044738587E+03    0.16116E+01    0.00000E+00  2208   0.577E+01 0.000E+00
CGA:   2    -0.807922340522E+03   -0.87760E+00   -0.86815E+00  2208   0.581E+01 0.113E+00
CGA:   3    -0.808158963047E+03   -0.23662E+00   -0.23104E+00  2208   0.377E+01 0.243E-01
CGA:   4    -0.808321447823E+03   -0.16248E+00   -0.16280E+00  2208   0.248E+01 0.196E-02
CGA:   5    -0.808521315551E+03   -0.19987E+00   -0.19916E+00  2208   0.180E+01 0.279E-01
CGA:   6    -0.808596221135E+03   -0.74906E-01   -0.75030E-01  2208   0.595E+00 0.199E-03
CGA:   7    -0.808619718825E+03   -0.23498E-01   -0.23593E-01  2208   0.274E+00-0.101E-03
CGA:   8    -0.808640024456E+03   -0.20306E-01   -0.20357E-01  2208   0.254E+00-0.249E-02
CGA:   9    -0.808649702868E+03   -0.96784E-02   -0.97012E-02  2208   0.156E+00-0.485E-04
CGA:  10    -0.808655879149E+03   -0.61763E-02   -0.61621E-02  2208   0.374E-01 0.144E-04
CGA:  11    -0.808658313155E+03   -0.24340E-02   -0.24328E-02  2208   0.254E-01 0.120E-03
CGA:  12    -0.808660460954E+03   -0.21478E-02   -0.21482E-02  2208   0.267E-01-0.111E-04
CGA:  13    -0.808661577270E+03   -0.11163E-02   -0.11162E-02  2208   0.132E-01 0.592E-05
CGA:  14    -0.808662191411E+03   -0.61414E-03   -0.61490E-03  2208   0.674E-02 0.167E-04
CGA:  15    -0.808662509193E+03   -0.31778E-03   -0.31766E-03  2208   0.713E-02-0.237E-05
CGA:  16    -0.808662958250E+03   -0.44906E-03   -0.44901E-03  2208   0.506E-02 0.764E-05
CGA:  17    -0.808663386619E+03   -0.42837E-03   -0.42809E-03  2208   0.284E-02 0.839E-05
CGA:  18    -0.808663561756E+03   -0.17514E-03   -0.17514E-03  2208   0.240E-02 0.230E-05
CGA:  19    -0.808663688251E+03   -0.12650E-03   -0.12654E-03  2208   0.302E-02 0.478E-05
CGA:  20    -0.808663889655E+03   -0.20140E-03   -0.20140E-03  2208   0.245E-02 0.154E-06
CGA:  21    -0.808663998363E+03   -0.10871E-03   -0.10875E-03  2208   0.125E-02 0.892E-06
CGA:  22    -0.808664058810E+03   -0.60447E-04   -0.60443E-04  2208   0.769E-03-0.905E-06
CGA:  23    -0.808664129752E+03   -0.70942E-04   -0.71004E-04  2208   0.775E-03-0.207E-05
CGA:  24    -0.808664201631E+03   -0.71879E-04   -0.71944E-04  2208   0.542E-03-0.239E-05
CGA:  25    -0.808664220902E+03   -0.19271E-04   -0.19238E-04  2208   0.341E-03-0.110E-05
CGA:  26    -0.808664241910E+03   -0.21009E-04   -0.21009E-04  2208   0.369E-03-0.827E-06
CGA:  27    -0.808664269950E+03   -0.28040E-04   -0.28055E-04  2208   0.440E-03-0.105E-05
CGA:  28    -0.808664287979E+03   -0.18029E-04   -0.18017E-04  2208   0.146E-03-0.828E-06
CGA:  29    -0.808664299092E+03   -0.11112E-04   -0.11121E-04  2208   0.979E-04-0.749E-06
CGA:  30    -0.808664310251E+03   -0.11159E-04   -0.11188E-04  2208   0.147E-03-0.705E-06
CGA:  31    -0.808664316537E+03   -0.62864E-05   -0.62864E-05  2208   0.897E-04-0.134E-06
  21 F= -.80866432E+03 E0= -.80862703E+03  d E =-.795505E-02  mag=    66.0000
       N       E                     dE             d eps       ncg     rms          ort
SDA:   1    -0.808286013885E+03    0.37830E+00    0.00000E+00  2208   0.138E+01 0.000E+00
CGA:   2    -0.808469830296E+03   -0.18382E+00   -0.18387E+00  2208   0.220E+01-0.204E-03
CGA:   3    -0.808536367390E+03   -0.66537E-01   -0.67509E-01  2208   0.793E+00-0.190E-01
CGA:   4    -0.808572926441E+03   -0.36559E-01   -0.35856E-01  2208   0.670E+00-0.389E-02
CGA:   5    -0.808636806312E+03   -0.63880E-01   -0.63765E-01  2208   0.386E+00 0.299E-02
CGA:   6    -0.808651077883E+03   -0.14272E-01   -0.14171E-01  2208   0.137E+00 0.102E-02
CGA:   7    -0.808657085557E+03   -0.60077E-02   -0.60180E-02  2208   0.568E-01 0.583E-04
CGA:   8    -0.808661935982E+03   -0.48504E-02   -0.48514E-02  2208   0.531E-01-0.256E-04
CGA:   9    -0.808664019370E+03   -0.20834E-02   -0.20842E-02  2208   0.292E-01-0.584E-06
CGA:  10    -0.808664989798E+03   -0.97043E-03   -0.96862E-03  2208   0.757E-02 0.195E-04
CGA:  11    -0.808665591550E+03   -0.60175E-03   -0.60168E-03  2208   0.646E-02 0.427E-05
CGA:  12    -0.808666016957E+03   -0.42541E-03   -0.42539E-03  2208   0.554E-02 0.239E-05
CGA:  13    -0.808666266149E+03   -0.24919E-03   -0.24926E-03  2208   0.272E-02 0.272E-05
CGA:  14    -0.808666395471E+03   -0.12932E-03   -0.12931E-03  2208   0.118E-02 0.448E-07
CGA:  15    -0.808666452592E+03   -0.57121E-04   -0.57134E-04  2208   0.151E-02 0.110E-05
CGA:  16    -0.808666562480E+03   -0.10989E-03   -0.10988E-03  2208   0.987E-03 0.496E-06
CGA:  17    -0.808666621264E+03   -0.58784E-04   -0.58785E-04  2208   0.435E-03 0.113E-05
CGA:  18    -0.808666651597E+03   -0.30333E-04   -0.30329E-04  2208   0.445E-03 0.503E-06
CGA:  19    -0.808666677362E+03   -0.25765E-04   -0.25769E-04  2208   0.546E-03 0.862E-06
CGA:  20    -0.808666710321E+03   -0.32959E-04   -0.32959E-04  2208   0.374E-03 0.281E-06
CGA:  21    -0.808666725684E+03   -0.15363E-04   -0.15368E-04  2208   0.209E-03 0.265E-06
CGA:  22    -0.808666735476E+03   -0.97924E-05   -0.97888E-05  2208   0.113E-03-0.208E-06
CGA:  23    -0.808666750720E+03   -0.15244E-04   -0.15317E-04  2208   0.144E-03-0.985E-06
CGA:  24    -0.808666758227E+03   -0.75065E-05   -0.75008E-05  2208   0.113E-03-0.576E-06
  22 F= -.80866676E+03 E0= -.80862908E+03  d E =-.244169E-02  mag=    66.0000
       N       E                     dE             d eps       ncg     rms          ort
SDA:   1    -0.808479537955E+03    0.18721E+00    0.00000E+00  2208   0.751E+00 0.000E+00
CGA:   2    -0.808528248256E+03   -0.48710E-01   -0.48677E-01  2208   0.146E+01 0.515E-02
CGA:   3    -0.808600092881E+03   -0.71845E-01   -0.71736E-01  2208   0.548E+00-0.198E-02
CGA:   4    -0.808626193709E+03   -0.26101E-01   -0.26255E-01  2208   0.223E+00 0.303E-02
CGA:   5    -0.808648123014E+03   -0.21929E-01   -0.22031E-01  2208   0.316E+00-0.232E-02
CGA:   6    -0.808660279077E+03   -0.12156E-01   -0.12133E-01  2208   0.960E-01 0.142E-03
CGA:   7    -0.808663764824E+03   -0.34857E-02   -0.34700E-02  2208   0.356E-01 0.126E-03
CGA:   8    -0.808665646672E+03   -0.18818E-02   -0.18824E-02  2208   0.356E-01 0.354E-04
CGA:   9    -0.808667376417E+03   -0.17297E-02   -0.17289E-02  2208   0.192E-01-0.167E-04
CGA:  10    -0.808668498020E+03   -0.11216E-02   -0.11216E-02  2208   0.464E-02-0.153E-04
CGA:  11    -0.808668738447E+03   -0.24043E-03   -0.24043E-03  2208   0.317E-02 0.115E-05
CGA:  12    -0.808668903995E+03   -0.16555E-03   -0.16558E-03  2208   0.414E-02 0.376E-05
CGA:  13    -0.808669151036E+03   -0.24704E-03   -0.24704E-03  2208   0.144E-02 0.169E-05
CGA:  14    -0.808669228336E+03   -0.77300E-04   -0.77294E-04  2208   0.675E-03-0.821E-06
CGA:  15    -0.808669267410E+03   -0.39074E-04   -0.39075E-04  2208   0.877E-03-0.101E-05
CGA:  16    -0.808669327309E+03   -0.59899E-04   -0.59916E-04  2208   0.828E-03-0.159E-05
CGA:  17    -0.808669369008E+03   -0.41700E-04   -0.41689E-04  2208   0.532E-03-0.124E-05
CGA:  18    -0.808669388738E+03   -0.19730E-04   -0.19737E-04  2208   0.260E-03 0.311E-06
CGA:  19    -0.808669415666E+03   -0.26927E-04   -0.26839E-04  2208   0.331E-03 0.188E-05
CGA:  20    -0.808669441818E+03   -0.26153E-04   -0.26104E-04  2208   0.288E-03 0.256E-05
CGA:  21    -0.808669452700E+03   -0.10882E-04   -0.10892E-04  2208   0.189E-03 0.477E-06
CGA:  22    -0.808669462259E+03   -0.95590E-05   -0.95598E-05  2208   0.864E-04-0.522E-07
  23 F= -.80866946E+03 E0= -.80863187E+03  d E =-.270403E-02  mag=    66.0000
