       N       E                     dE             d eps       ncg     rms          ort
DAV:   1     0.140239200179E+05    0.14024E+05   -0.41292E+05  2016   0.175E+03
DAV:   2     0.191932417591E+04   -0.12105E+05   -0.11833E+05  2016   0.568E+02
DAV:   3    -0.748045726405E+03   -0.26674E+04   -0.25385E+04  2016   0.253E+02
DAV:   4    -0.109424341156E+04   -0.34620E+03   -0.34152E+03  2016   0.120E+02
DAV:   5    -0.111276449279E+04   -0.18521E+02   -0.17973E+02  2016   0.339E+01
SDA:   6    -0.230680801983E+03    0.88208E+03   -0.17973E+02  2016   0.454E+04 0.000E+00
CGA:   7    -0.706172628913E+03   -0.47549E+03   -0.50278E+03  2016   0.176E+04-0.778E+02
CGA:   8    -0.721693935748E+03   -0.15521E+02   -0.11021E+03  2016   0.165E+04-0.556E+03
CGA:   9    -0.684006188149E+03    0.37688E+02   -0.58156E+02  2016   0.500E+04-0.193E+04
CGA:  10    -0.572679208442E+03    0.11133E+03   -0.39604E+03  2016   0.145E+04-0.604E+03
CGA:  11    -0.662718997557E+03   -0.90040E+02   -0.83575E+02  2016   0.959E+03-0.953E+03
CGA:  12    -0.660468659104E+03    0.22503E+01   -0.43022E+02  2016   0.402E+04-0.409E+04
CGA:  13    -0.629699276389E+03    0.30769E+02   -0.27895E+03  2016   0.101E+04-0.831E+03
CGA:  14    -0.786337700068E+03   -0.15664E+03   -0.42054E+02  2016   0.343E+04-0.701E+04
CGA:  15    -0.641099109688E+03    0.14524E+03   -0.21292E+03  2016   0.149E+04-0.671E+03
CGA:  16    -0.661536450809E+03   -0.20437E+02   -0.66363E+02  2016   0.146E+04-0.895E+03
CGA:  17    -0.658474314778E+03    0.30621E+01   -0.73709E+02  2016   0.956E+03-0.772E+03
CGA:  18    -0.678510656695E+03   -0.20036E+02   -0.40405E+02  2016   0.920E+03-0.905E+03
CGA:  19    -0.672090148432E+03    0.64205E+01   -0.36457E+02  2016   0.980E+03-0.753E+03
CGA:  20    -0.680044532220E+03   -0.79544E+01   -0.39358E+02  2016   0.786E+03-0.783E+03
CGA:  21    -0.682681951358E+03   -0.26374E+01   -0.28057E+02  2016   0.114E+04-0.100E+04
CGA:  22    -0.677511094868E+03    0.51709E+01   -0.45038E+02  2016   0.760E+03-0.718E+03
CGA:  23    -0.713842763972E+03   -0.36332E+02   -0.26086E+02  2016   0.699E+04-0.813E+04
CGA:  24    -0.662411283079E+03    0.51431E+02   -0.36148E+03  2016   0.864E+03-0.690E+03
CGA:  25    -0.779480327738E+03   -0.11707E+03   -0.30624E+02  2016   0.372E+04-0.631E+04
CGA:  26    -0.680317600458E+03    0.99163E+02   -0.16199E+03  2016   0.111E+04-0.623E+03
CGA:  27    -0.679052373501E+03    0.12652E+01   -0.33277E+02  2016   0.103E+04-0.581E+03
CGA:  28    -0.684388374822E+03   -0.53360E+01   -0.34864E+02  2016   0.745E+03-0.689E+03
CGA:  29    -0.696999238615E+03   -0.12611E+02   -0.22431E+02  2016   0.865E+03-0.738E+03
CGA:  30    -0.690758007613E+03    0.62412E+01   -0.24639E+02  2016   0.844E+03-0.797E+03
CGA:  31    -0.698344549857E+03   -0.75865E+01   -0.24931E+02  2016   0.701E+03-0.675E+03
CGA:  32    -0.746666623177E+03   -0.48322E+02   -0.17542E+02  2016   0.837E+04-0.104E+05
CGA:  33    -0.688343891055E+03    0.58323E+02   -0.32561E+03  2016   0.759E+03-0.574E+03
CGA:  34    -0.830427785433E+03   -0.14208E+03   -0.19269E+02  2016   0.351E+04-0.856E+04
CGA:  35    -0.714737859551E+03    0.11569E+03   -0.10703E+03  2016   0.541E+04-0.250E+04
CGA:  36    -0.679525421477E+03    0.35212E+02   -0.18646E+03  2016   0.792E+03-0.635E+03
CGA:  37    -0.749947465108E+03   -0.70422E+02   -0.21318E+02  2016   0.643E+04-0.821E+04
CGA:  38    -0.683241549658E+03    0.66706E+02   -0.20523E+03  2016   0.806E+03-0.629E+03
CGA:  39    -0.716449948839E+03   -0.33208E+02   -0.20167E+02  2016   0.383E+04-0.391E+04
CGA:  40    -0.684429152492E+03    0.32021E+02   -0.11241E+03  2016   0.737E+03-0.630E+03
CGA:  41    -0.720410765650E+03   -0.35982E+02   -0.17261E+02  2016   0.394E+04-0.407E+04
CGA:  42    -0.684622481717E+03    0.35788E+02   -0.10856E+03  2016   0.728E+03-0.619E+03
CGA:  43    -0.716139261538E+03   -0.31517E+02   -0.16697E+02  2016   0.159E+04-0.158E+04
CGA:  44    -0.693780326856E+03    0.22359E+02   -0.34655E+02  2016   0.330E+04-0.302E+04
CGA:  45    -0.706094148523E+03   -0.12314E+02   -0.89980E+02  2016   0.624E+03-0.638E+03
CGA:  46    -0.850527857472E+03   -0.14443E+03   -0.84480E+01  2016   0.193E+04 0.641E+04
CGA:  47    -0.831750601415E+03    0.18777E+02   -0.31189E+02  2016   0.466E+04-0.249E+04
CGA:  48    -0.723872279091E+03    0.10788E+03   -0.97874E+02  2016   0.574E+04-0.258E+04
CGA:  49    -0.689488092722E+03    0.34384E+02   -0.13243E+03  2016   0.721E+03-0.609E+03
CGA:  50    -0.719780145232E+03   -0.30292E+02   -0.14634E+02  2016   0.342E+04-0.346E+04
CGA:  51    -0.693430757906E+03    0.26349E+02   -0.70323E+02  2016   0.116E+04-0.104E+04
CGA:  52    -0.716531228449E+03   -0.23100E+02   -0.19472E+02  2016   0.619E+03-0.506E+03
CGA:  53    -0.817430541702E+03   -0.10090E+03   -0.33603E+01  2016   0.907E+04 0.132E+05
CGA:  54    -0.695492634326E+03    0.12194E+03   -0.17206E+03  2016   0.979E+03-0.489E+03
CGA:  55    -0.712992783458E+03   -0.17500E+02   -0.17332E+02  2016   0.588E+03-0.580E+03
CGA:  56    -0.865330639716E+03   -0.15234E+03   -0.62973E+01  2016   0.145E+03 0.194E+04
CGA:  57    -0.865928197540E+03   -0.59756E+00   -0.83179E+00  2016   0.384E+02-0.421E+02
CGA:  58    -0.866097640220E+03   -0.16944E+00   -0.19195E+00  2016   0.815E+01-0.299E+01
CGA:  59    -0.866238550035E+03   -0.14091E+00   -0.14819E+00  2016   0.120E+02-0.171E+00
CGA:  60    -0.866693776161E+03   -0.45523E+00   -0.45168E+00  2016   0.497E+02 0.900E+00
CGA:  61    -0.867598365757E+03   -0.90459E+00   -0.12272E+01  2016   0.335E+02 0.165E+01
CGA:  62    -0.868075600478E+03   -0.47723E+00   -0.70170E+00  2016   0.859E+01-0.185E+01
CGA:  63    -0.868190128806E+03   -0.11453E+00   -0.12871E+00  2016   0.228E+01-0.499E+00
CGA:  64    -0.868261107386E+03   -0.70979E-01   -0.71155E-01  2016   0.228E+01 0.947E-01
CGA:  65    -0.868381035526E+03   -0.11993E+00   -0.11560E+00  2016   0.265E+01 0.231E+00
CGA:  66    -0.868482803575E+03   -0.10177E+00   -0.10170E+00  2016   0.116E+01 0.215E+00
CGA:  67    -0.868532085871E+03   -0.49282E-01   -0.48708E-01  2016   0.111E+01 0.837E-01
CGA:  68    -0.868620687601E+03   -0.88602E-01   -0.81872E-01  2016   0.156E+01 0.189E+00
CGA:  69    -0.868710678439E+03   -0.89991E-01   -0.87314E-01  2016   0.897E+00 0.169E+00
CGA:  70    -0.868758617365E+03   -0.47939E-01   -0.46817E-01  2016   0.517E+00 0.793E-01
CGA:  71    -0.868795089339E+03   -0.36472E-01   -0.35328E-01  2016   0.472E+00 0.402E-01
CGA:  72    -0.868835023656E+03   -0.39934E-01   -0.38112E-01  2016   0.391E+00 0.482E-01
CGA:  73    -0.868861750957E+03   -0.26727E-01   -0.26206E-01  2016   0.293E+00 0.210E-01
CGA:  74    -0.868886923345E+03   -0.25172E-01   -0.24398E-01  2016   0.245E+00 0.197E-01
CGA:  75    -0.868904780120E+03   -0.17857E-01   -0.17565E-01  2016   0.166E+00 0.104E-01
CGA:  76    -0.868917884956E+03   -0.13105E-01   -0.12957E-01  2016   0.137E+00 0.427E-02
CGA:  77    -0.868929876323E+03   -0.11991E-01   -0.11823E-01  2016   0.108E+00 0.420E-02
CGA:  78    -0.868938150435E+03   -0.82741E-02   -0.82086E-02  2016   0.762E-01 0.206E-02
CGA:  79    -0.868944682992E+03   -0.65326E-02   -0.65120E-02  2016   0.615E-01 0.523E-03
CGA:  80    -0.868949451623E+03   -0.47686E-02   -0.47597E-02  2016   0.400E-01 0.218E-03
CGA:  81    -0.868952448334E+03   -0.29967E-02   -0.29922E-02  2016   0.287E-01 0.150E-03
CGA:  82    -0.868955030226E+03   -0.25819E-02   -0.25853E-02  2016   0.259E-01-0.853E-04
CGA:  83    -0.868957092500E+03   -0.20623E-02   -0.20614E-02  2016   0.175E-01 0.533E-04
CGA:  84    -0.868958446018E+03   -0.13535E-02   -0.13546E-02  2016   0.132E-01-0.156E-04
CGA:  85    -0.868959597569E+03   -0.11516E-02   -0.11496E-02  2016   0.110E-01 0.817E-04
CGA:  86    -0.868960413250E+03   -0.81568E-03   -0.81612E-03  2016   0.711E-02 0.177E-04
SDA:  87    -0.868960995342E+03   -0.58209E-03   -0.58043E-03  2016   0.575E-02 0.859E-04
CGA:  88    -0.868961166877E+03   -0.17154E-03   -0.17126E-03  2016   0.153E-02 0.159E-04
CGA:  89    -0.868961625453E+03   -0.45858E-03   -0.44003E-03  2016   0.378E-02 0.805E-04
CGA:  90    -0.868961860933E+03   -0.23548E-03   -0.23590E-03  2016   0.195E-02 0.446E-04
CGA:  91    -0.868962173709E+03   -0.31278E-03   -0.30529E-03  2016   0.393E-02 0.884E-04
CGA:  92    -0.868962466087E+03   -0.29238E-03   -0.29262E-03  2016   0.111E-02 0.841E-04
CGA:  93    -0.868962565534E+03   -0.99447E-04   -0.98948E-04  2016   0.125E-02 0.382E-04
CGA:  94    -0.868962673050E+03   -0.10752E-03   -0.10716E-03  2016   0.115E-02 0.433E-04
CGA:  95    -0.868962745876E+03   -0.72826E-04   -0.73188E-04  2016   0.566E-03 0.281E-04
CGA:  96    -0.868962810517E+03   -0.64641E-04   -0.64014E-04  2016   0.722E-03 0.177E-04
CGA:  97    -0.868962871178E+03   -0.60661E-04   -0.60617E-04  2016   0.347E-03 0.875E-05
CGA:  98    -0.868962910285E+03   -0.39107E-04   -0.39398E-04  2016   0.502E-03-0.808E-05
CGA:  99    -0.868962957616E+03   -0.47332E-04   -0.47743E-04  2016   0.398E-03-0.216E-04
CGA: 100    -0.868962986060E+03   -0.28444E-04   -0.28350E-04  2016   0.275E-03-0.188E-04
   1 F= -.86896299E+03 E0= -.86894176E+03  d E =-.868963E+03  mag=    14.0000
       N       E                     dE             d eps       ncg     rms          ort
SDA:   1    -0.868649205070E+03    0.31375E+00    0.00000E+00  2016   0.274E+01 0.000E+00
CGA:   2    -0.868771562433E+03   -0.12236E+00   -0.12855E+00  2016   0.143E+01-0.355E-01
CGA:   3    -0.868878555029E+03   -0.10699E+00   -0.10686E+00  2016   0.604E+00-0.209E-01
CGA:   4    -0.868910814231E+03   -0.32259E-01   -0.32140E-01  2016   0.368E+00-0.192E-02
CGA:   5    -0.868937361446E+03   -0.26547E-01   -0.26560E-01  2016   0.195E+00 0.621E-03
CGA:   6    -0.868949903492E+03   -0.12542E-01   -0.12545E-01  2016   0.138E+00 0.673E-03
CGA:   7    -0.868959614310E+03   -0.97108E-02   -0.97206E-02  2016   0.735E-01 0.104E-02
CGA:   8    -0.868963557035E+03   -0.39427E-02   -0.39567E-02  2016   0.249E-01 0.335E-03
CGA:   9    -0.868965825399E+03   -0.22684E-02   -0.22673E-02  2016   0.207E-01 0.675E-04
CGA:  10    -0.868967034801E+03   -0.12094E-02   -0.12122E-02  2016   0.746E-02 0.218E-04
CGA:  11    -0.868967637704E+03   -0.60290E-03   -0.60291E-03  2016   0.656E-02-0.965E-05
CGA:  12    -0.868968095266E+03   -0.45756E-03   -0.45768E-03  2016   0.420E-02 0.353E-05
CGA:  13    -0.868968339014E+03   -0.24375E-03   -0.24439E-03  2016   0.187E-02 0.137E-04
CGA:  14    -0.868968559241E+03   -0.22023E-03   -0.21858E-03  2016   0.202E-02 0.374E-04
CGA:  15    -0.868968698890E+03   -0.13965E-03   -0.13990E-03  2016   0.115E-02 0.257E-04
CGA:  16    -0.868968795293E+03   -0.96403E-04   -0.96284E-04  2016   0.886E-03 0.163E-04
CGA:  17    -0.868968868431E+03   -0.73138E-04   -0.73098E-04  2016   0.784E-03 0.710E-05
CGA:  18    -0.868968927483E+03   -0.59052E-04   -0.59055E-04  2016   0.451E-03-0.790E-06
CGA:  19    -0.868968963929E+03   -0.36446E-04   -0.36486E-04  2016   0.490E-03-0.982E-05
CGA:  20    -0.868969007812E+03   -0.43883E-04   -0.44225E-04  2016   0.322E-03-0.226E-04
CGA:  21    -0.868969029992E+03   -0.22180E-04   -0.22077E-04  2016   0.193E-03-0.191E-04
CGA:  22    -0.868969051376E+03   -0.21384E-04   -0.22945E-04  2016   0.325E-03-0.319E-04
CGA:  23    -0.868969067405E+03   -0.16029E-04   -0.15465E-04  2016   0.912E-04-0.257E-04
CGA:  24    -0.868969074414E+03   -0.70095E-05   -0.70643E-05  2016   0.102E-03-0.100E-04
   2 F= -.86896907E+03 E0= -.86894830E+03  d E =-.608835E-02  mag=    14.0000
       N       E                     dE             d eps       ncg     rms          ort
SDA:   1    -0.868952137029E+03    0.16930E-01    0.00000E+00  2016   0.251E+00 0.000E+00
CGA:   2    -0.868960653278E+03   -0.85162E-02   -0.82709E-02  2016   0.481E-01 0.634E-02
CGA:   3    -0.868965071701E+03   -0.44184E-02   -0.44038E-02  2016   0.321E-01 0.137E-02
CGA:   4    -0.868967017208E+03   -0.19455E-02   -0.19624E-02  2016   0.128E-01 0.796E-03
CGA:   5    -0.868967993005E+03   -0.97580E-03   -0.97632E-03  2016   0.102E-01 0.184E-03
CGA:   6    -0.868968689558E+03   -0.69655E-03   -0.69615E-03  2016   0.504E-02-0.373E-04
CGA:   7    -0.868969081572E+03   -0.39201E-03   -0.39216E-03  2016   0.357E-02-0.133E-03
CGA:   8    -0.868969287759E+03   -0.20619E-03   -0.20433E-03  2016   0.127E-02-0.916E-04
CGA:   9    -0.868969390182E+03   -0.10242E-03   -0.10260E-03  2016   0.617E-03-0.261E-04
CGA:  10    -0.868969442486E+03   -0.52303E-04   -0.52275E-04  2016   0.491E-03 0.296E-05
CGA:  11    -0.868969468192E+03   -0.25706E-04   -0.25791E-04  2016   0.229E-03 0.385E-05
CGA:  12    -0.868969489065E+03   -0.20872E-04   -0.20861E-04  2016   0.130E-03 0.815E-06
CGA:  13    -0.868969500990E+03   -0.11925E-04   -0.12011E-04  2016   0.122E-03-0.552E-05
CGA:  14    -0.868969509218E+03   -0.82287E-05   -0.81784E-05  2016   0.655E-04-0.704E-05
   3 F= -.86896951E+03 E0= -.86894871E+03  d E =-.652316E-02  mag=    14.0000
       N       E                     dE             d eps       ncg     rms          ort
SDA:   1    -0.868660976888E+03    0.30852E+00    0.00000E+00  2016   0.176E+01 0.000E+00
CGA:   2    -0.868754338311E+03   -0.93361E-01   -0.95873E-01  2016   0.108E+01 0.857E-02
CGA:   3    -0.868847909672E+03   -0.93571E-01   -0.94029E-01  2016   0.933E+00-0.290E-01
CGA:   4    -0.868907619621E+03   -0.59710E-01   -0.59878E-01  2016   0.573E+00 0.847E-02
CGA:   5    -0.868941059729E+03   -0.33440E-01   -0.33614E-01  2016   0.275E+00 0.159E-02
CGA:   6    -0.868956043627E+03   -0.14984E-01   -0.14982E-01  2016   0.115E+00 0.888E-04
CGA:   7    -0.868967811626E+03   -0.11768E-01   -0.11753E-01  2016   0.399E-01 0.514E-03
CGA:   8    -0.868970228973E+03   -0.24173E-02   -0.24208E-02  2016   0.269E-01 0.123E-03
CGA:   9    -0.868972085610E+03   -0.18566E-02   -0.18576E-02  2016   0.158E-01 0.885E-04
CGA:  10    -0.868973034239E+03   -0.94863E-03   -0.94982E-03  2016   0.704E-02 0.815E-05
CGA:  11    -0.868973668067E+03   -0.63383E-03   -0.63425E-03  2016   0.624E-02-0.323E-04
CGA:  12    -0.868974083245E+03   -0.41518E-03   -0.41522E-03  2016   0.226E-02-0.216E-04
CGA:  13    -0.868974283966E+03   -0.20072E-03   -0.20088E-03  2016   0.268E-02-0.105E-04
CGA:  14    -0.868974470194E+03   -0.18623E-03   -0.18629E-03  2016   0.134E-02 0.197E-05
CGA:  15    -0.868974565988E+03   -0.95794E-04   -0.95828E-04  2016   0.929E-03 0.640E-05
CGA:  16    -0.868974655933E+03   -0.89945E-04   -0.89676E-04  2016   0.738E-03 0.119E-04
CGA:  17    -0.868974703450E+03   -0.47517E-04   -0.47633E-04  2016   0.390E-03 0.822E-05
CGA:  18    -0.868974743956E+03   -0.40506E-04   -0.40260E-04  2016   0.455E-03 0.885E-05
CGA:  19    -0.868974777406E+03   -0.33450E-04   -0.33479E-04  2016   0.247E-03 0.588E-05
CGA:  20    -0.868974796541E+03   -0.19135E-04   -0.19134E-04  2016   0.192E-03 0.140E-05
CGA:  21    -0.868974815217E+03   -0.18676E-04   -0.18717E-04  2016   0.177E-03-0.211E-05
CGA:  22    -0.868974828015E+03   -0.12798E-04   -0.12781E-04  2016   0.105E-03-0.409E-05
CGA:  23    -0.868974835857E+03   -0.78420E-05   -0.78387E-05  2016   0.764E-04-0.365E-05
   4 F= -.86897484E+03 E0= -.86895442E+03  d E =-.532664E-02  mag=    14.0000
       N       E                     dE             d eps       ncg     rms          ort
SDA:   1    -0.868971624057E+03    0.32040E-02    0.00000E+00  2016   0.959E-01 0.000E+00
CGA:   2    -0.868973963397E+03   -0.23393E-02   -0.23566E-02  2016   0.356E-02-0.533E-03
CGA:   3    -0.868974252685E+03   -0.28929E-03   -0.28958E-03  2016   0.379E-02-0.479E-04
CGA:   4    -0.868974573284E+03   -0.32060E-03   -0.32147E-03  2016   0.243E-02-0.850E-04
CGA:   5    -0.868974734489E+03   -0.16121E-03   -0.16089E-03  2016   0.138E-02-0.384E-04
CGA:   6    -0.868974831576E+03   -0.97086E-04   -0.97033E-04  2016   0.441E-03-0.111E-04
CGA:   7    -0.868974869501E+03   -0.37926E-04   -0.37828E-04  2016   0.338E-03 0.917E-05
CGA:   8    -0.868974887050E+03   -0.17548E-04   -0.17736E-04  2016   0.114E-03 0.755E-05
CGA:   9    -0.868974895730E+03   -0.86805E-05   -0.86828E-05  2016   0.621E-04 0.472E-05
   5 F= -.86897490E+03 E0= -.86895449E+03  d E =-.538651E-02  mag=    14.0000
       N       E                     dE             d eps       ncg     rms          ort
SDA:   1    -0.868626715760E+03    0.34817E+00    0.00000E+00  2016   0.207E+01 0.000E+00
CGA:   2    -0.868755186340E+03   -0.12847E+00   -0.12913E+00  2016   0.128E+01 0.183E-01
CGA:   3    -0.868840234004E+03   -0.85048E-01   -0.84917E-01  2016   0.775E+00-0.513E-02
CGA:   4    -0.868914781955E+03   -0.74548E-01   -0.74396E-01  2016   0.523E+00 0.511E-02
CGA:   5    -0.868941397738E+03   -0.26616E-01   -0.26780E-01  2016   0.222E+00 0.298E-03
CGA:   6    -0.868959489190E+03   -0.18091E-01   -0.18105E-01  2016   0.186E+00-0.121E-02
CGA:   7    -0.868969850617E+03   -0.10361E-01   -0.10395E-01  2016   0.468E-01 0.475E-03
CGA:   8    -0.868972615739E+03   -0.27651E-02   -0.27670E-02  2016   0.350E-01-0.216E-06
CGA:   9    -0.868975242198E+03   -0.26265E-02   -0.26262E-02  2016   0.117E-01 0.355E-04
CGA:  10    -0.868976171565E+03   -0.92937E-03   -0.92902E-03  2016   0.948E-02 0.288E-04
CGA:  11    -0.868976934752E+03   -0.76319E-03   -0.76310E-03  2016   0.399E-02-0.549E-06
CGA:  12    -0.868977235013E+03   -0.30026E-03   -0.30025E-03  2016   0.333E-02-0.276E-05
CGA:  13    -0.868977509006E+03   -0.27399E-03   -0.27399E-03  2016   0.259E-02-0.484E-05
CGA:  14    -0.868977677186E+03   -0.16818E-03   -0.16820E-03  2016   0.147E-02-0.941E-06
CGA:  15    -0.868977796038E+03   -0.11885E-03   -0.11875E-03  2016   0.996E-03 0.106E-04
CGA:  16    -0.868977890289E+03   -0.94251E-04   -0.93976E-04  2016   0.930E-03 0.130E-04
CGA:  17    -0.868977958628E+03   -0.68339E-04   -0.68369E-04  2016   0.521E-03 0.134E-04
CGA:  18    -0.868978004695E+03   -0.46067E-04   -0.45932E-04  2016   0.482E-03 0.104E-04
CGA:  19    -0.868978053267E+03   -0.48572E-04   -0.48350E-04  2016   0.303E-03 0.938E-05
CGA:  20    -0.868978074801E+03   -0.21534E-04   -0.21550E-04  2016   0.273E-03 0.215E-05
CGA:  21    -0.868978103171E+03   -0.28370E-04   -0.28364E-04  2016   0.217E-03 0.169E-06
CGA:  22    -0.868978115870E+03   -0.12699E-04   -0.12674E-04  2016   0.997E-04-0.134E-05
CGA:  23    -0.868978126591E+03   -0.10721E-04   -0.10812E-04  2016   0.118E-03-0.282E-05
CGA:  24    -0.868978136708E+03   -0.10117E-04   -0.10149E-04  2016   0.542E-04-0.302E-05
CGA:  25    -0.868978140882E+03   -0.41738E-05   -0.41751E-05  2016   0.524E-04-0.169E-05
   6 F= -.86897814E+03 E0= -.86895782E+03  d E =-.324515E-02  mag=    14.0000
       N       E                     dE             d eps       ncg     rms          ort
SDA:   1    -0.868967277102E+03    0.10860E-01    0.00000E+00  2016   0.289E+00 0.000E+00
CGA:   2    -0.868974811012E+03   -0.75339E-02   -0.75339E-02  2016   0.144E-01 0.522E-03
CGA:   3    -0.868976050323E+03   -0.12393E-02   -0.12404E-02  2016   0.131E-01-0.111E-03
CGA:   4    -0.868976953839E+03   -0.90352E-03   -0.90274E-03  2016   0.867E-02-0.904E-04
CGA:   5    -0.868977588693E+03   -0.63485E-03   -0.63479E-03  2016   0.451E-02-0.188E-04
CGA:   6    -0.868977897987E+03   -0.30929E-03   -0.30947E-03  2016   0.161E-02 0.274E-04
CGA:   7    -0.868978082348E+03   -0.18436E-03   -0.18257E-03  2016   0.887E-03 0.485E-04
CGA:   8    -0.868978134517E+03   -0.52169E-04   -0.52465E-04  2016   0.375E-03 0.149E-04
CGA:   9    -0.868978164140E+03   -0.29623E-04   -0.29617E-04  2016   0.195E-03 0.595E-05
CGA:  10    -0.868978178778E+03   -0.14638E-04   -0.14644E-04  2016   0.138E-03 0.238E-05
CGA:  11    -0.868978189254E+03   -0.10476E-04   -0.10479E-04  2016   0.668E-04 0.194E-05
CGA:  12    -0.868978193797E+03   -0.45427E-05   -0.45554E-05  2016   0.429E-04 0.141E-05
   7 F= -.86897819E+03 E0= -.86895792E+03  d E =-.329807E-02  mag=    14.0000
       N       E                     dE             d eps       ncg     rms          ort
SDA:   1    -0.868710170991E+03    0.26802E+00    0.00000E+00  2016   0.148E+01 0.000E+00
CGA:   2    -0.868803744562E+03   -0.93574E-01   -0.93752E-01  2016   0.102E+01 0.457E-02
CGA:   3    -0.868878596317E+03   -0.74852E-01   -0.74853E-01  2016   0.691E+00-0.250E-04
CGA:   4    -0.868933053015E+03   -0.54457E-01   -0.54460E-01  2016   0.375E+00-0.716E-03
CGA:   5    -0.868956074727E+03   -0.23022E-01   -0.23063E-01  2016   0.124E+00 0.733E-03
CGA:   6    -0.868967876512E+03   -0.11802E-01   -0.11805E-01  2016   0.140E+00-0.481E-04
CGA:   7    -0.868975741476E+03   -0.78650E-02   -0.78770E-02  2016   0.329E-01 0.259E-03
CGA:   8    -0.868977567614E+03   -0.18261E-02   -0.18337E-02  2016   0.221E-01 0.724E-04
CGA:   9    -0.868979385152E+03   -0.18175E-02   -0.18180E-02  2016   0.769E-02-0.544E-04
CGA:  10    -0.868979960269E+03   -0.57512E-03   -0.57513E-03  2016   0.592E-02-0.291E-04
CGA:  11    -0.868980428350E+03   -0.46808E-03   -0.46826E-03  2016   0.278E-02-0.400E-04
CGA:  12    -0.868980599139E+03   -0.17079E-03   -0.17071E-03  2016   0.158E-02-0.100E-04
CGA:  13    -0.868980782634E+03   -0.18349E-03   -0.18324E-03  2016   0.172E-02 0.569E-05
CGA:  14    -0.868980877578E+03   -0.94945E-04   -0.95139E-04  2016   0.663E-03 0.724E-05
CGA:  15    -0.868980942061E+03   -0.64482E-04   -0.64220E-04  2016   0.773E-03 0.119E-04
CGA:  16    -0.868981003003E+03   -0.60943E-04   -0.60923E-04  2016   0.408E-03 0.133E-04
CGA:  17    -0.868981034707E+03   -0.31704E-04   -0.31702E-04  2016   0.346E-03 0.688E-05
CGA:  18    -0.868981075719E+03   -0.41011E-04   -0.40761E-04  2016   0.237E-03 0.635E-05
CGA:  19    -0.868981093880E+03   -0.18162E-04   -0.18161E-04  2016   0.185E-03-0.119E-06
CGA:  20    -0.868981112737E+03   -0.18856E-04   -0.18943E-04  2016   0.225E-03-0.362E-05
CGA:  21    -0.868981126798E+03   -0.14062E-04   -0.13997E-04  2016   0.787E-04-0.420E-05
CGA:  22    -0.868981134428E+03   -0.76302E-05   -0.77197E-05  2016   0.935E-04-0.415E-05
   8 F= -.86898113E+03 E0= -.86896076E+03  d E =-.294063E-02  mag=    14.0000
       N       E                     dE             d eps       ncg     rms          ort
SDA:   1    -0.868766056377E+03    0.21507E+00    0.00000E+00  2016   0.124E+01 0.000E+00
CGA:   2    -0.868835104828E+03   -0.69048E-01   -0.69469E-01  2016   0.877E+00 0.114E-02
CGA:   3    -0.868896882803E+03   -0.61778E-01   -0.61750E-01  2016   0.541E+00-0.168E-02
CGA:   4    -0.868941675446E+03   -0.44793E-01   -0.44825E-01  2016   0.348E+00-0.377E-02
CGA:   5    -0.868960154313E+03   -0.18479E-01   -0.18670E-01  2016   0.125E+00 0.125E-02
CGA:   6    -0.868968751694E+03   -0.85974E-02   -0.85963E-02  2016   0.103E+00 0.636E-04
CGA:   7    -0.868977505615E+03   -0.87539E-02   -0.87522E-02  2016   0.279E-01 0.221E-03
CGA:   8    -0.868979114246E+03   -0.16086E-02   -0.16120E-02  2016   0.168E-01 0.394E-04
CGA:   9    -0.868980610231E+03   -0.14960E-02   -0.14963E-02  2016   0.692E-02-0.303E-04
CGA:  10    -0.868981018646E+03   -0.40842E-03   -0.40794E-03  2016   0.516E-02-0.275E-04
CGA:  11    -0.868981437543E+03   -0.41890E-03   -0.41900E-03  2016   0.239E-02-0.282E-04
CGA:  12    -0.868981593321E+03   -0.15578E-03   -0.15564E-03  2016   0.138E-02-0.130E-04
CGA:  13    -0.868981732187E+03   -0.13887E-03   -0.13877E-03  2016   0.145E-02 0.295E-05
CGA:  14    -0.868981830481E+03   -0.98293E-04   -0.98381E-04  2016   0.593E-03 0.808E-05
CGA:  15    -0.868981886620E+03   -0.56139E-04   -0.55953E-04  2016   0.637E-03 0.103E-04
CGA:  16    -0.868981934799E+03   -0.48179E-04   -0.48213E-04  2016   0.422E-03 0.110E-04
CGA:  17    -0.868981970981E+03   -0.36182E-04   -0.36125E-04  2016   0.294E-03 0.819E-05
CGA:  18    -0.868981996911E+03   -0.25930E-04   -0.25897E-04  2016   0.289E-03 0.379E-05
CGA:  19    -0.868982019985E+03   -0.23074E-04   -0.23072E-04  2016   0.173E-03 0.861E-06
CGA:  20    -0.868982036439E+03   -0.16454E-04   -0.16489E-04  2016   0.134E-03-0.205E-05
CGA:  21    -0.868982048816E+03   -0.12377E-04   -0.12444E-04  2016   0.137E-03-0.437E-05
CGA:  22    -0.868982057339E+03   -0.85237E-05   -0.84599E-05  2016   0.555E-04-0.411E-05
   9 F= -.86898206E+03 E0= -.86896164E+03  d E =-.386354E-02  mag=    14.0000
       N       E                     dE             d eps       ncg     rms          ort
SDA:   1    -0.868801925888E+03    0.18012E+00    0.00000E+00  2016   0.758E+00 0.000E+00
CGA:   2    -0.868877150843E+03   -0.75225E-01   -0.75278E-01  2016   0.780E+00-0.259E-02
CGA:   3    -0.868919600863E+03   -0.42450E-01   -0.42511E-01  2016   0.405E+00-0.818E-03
CGA:   4    -0.868954082995E+03   -0.34482E-01   -0.34482E-01  2016   0.232E+00-0.372E-03
CGA:   5    -0.868966338953E+03   -0.12256E-01   -0.12260E-01  2016   0.109E+00 0.167E-03
CGA:   6    -0.868977927101E+03   -0.11588E-01   -0.11565E-01  2016   0.635E-01 0.805E-03
CGA:   7    -0.868980866512E+03   -0.29394E-02   -0.29442E-02  2016   0.191E-01 0.200E-03
CGA:   8    -0.868982568118E+03   -0.17016E-02   -0.17016E-02  2016   0.153E-01 0.383E-05
CGA:   9    -0.868983513978E+03   -0.94586E-03   -0.94626E-03  2016   0.492E-02-0.240E-04
CGA:  10    -0.868983893361E+03   -0.37938E-03   -0.37938E-03  2016   0.425E-02-0.298E-04
CGA:  11    -0.868984175234E+03   -0.28187E-03   -0.28174E-03  2016   0.183E-02-0.152E-04
CGA:  12    -0.868984296507E+03   -0.12127E-03   -0.12131E-03  2016   0.110E-02 0.186E-05
CGA:  13    -0.868984406466E+03   -0.10996E-03   -0.10970E-03  2016   0.988E-03 0.116E-04
CGA:  14    -0.868984472861E+03   -0.66396E-04   -0.66523E-04  2016   0.387E-03 0.102E-04
CGA:  15    -0.868984515065E+03   -0.42204E-04   -0.42060E-04  2016   0.524E-03 0.487E-05
CGA:  16    -0.868984550721E+03   -0.35656E-04   -0.35684E-04  2016   0.251E-03 0.228E-05
CGA:  17    -0.868984569714E+03   -0.18993E-04   -0.18992E-04  2016   0.201E-03-0.519E-06
CGA:  18    -0.868984589959E+03   -0.20244E-04   -0.20311E-04  2016   0.158E-03-0.291E-05
CGA:  19    -0.868984602453E+03   -0.12495E-04   -0.12499E-04  2016   0.122E-03-0.382E-05
CGA:  20    -0.868984611720E+03   -0.92664E-05   -0.92616E-05  2016   0.906E-04-0.416E-05
  10 F= -.86898461E+03 E0= -.86896400E+03  d E =-.255438E-02  mag=    14.0000
       N       E                     dE             d eps       ncg     rms          ort
SDA:   1    -0.868955572573E+03    0.29030E-01    0.00000E+00  2016   0.218E+00 0.000E+00
CGA:   2    -0.868964078256E+03   -0.85057E-02   -0.82288E-02  2016   0.996E-01 0.361E-02
CGA:   3    -0.868974619952E+03   -0.10542E-01   -0.10573E-01  2016   0.654E-01-0.117E-02
CGA:   4    -0.868979370728E+03   -0.47508E-02   -0.47501E-02  2016   0.437E-01-0.287E-03
CGA:   5    -0.868982369224E+03   -0.29985E-02   -0.29973E-02  2016   0.164E-01-0.547E-04
CGA:   6    -0.868983763742E+03   -0.13945E-02   -0.13928E-02  2016   0.124E-01 0.228E-03
CGA:   7    -0.868984562975E+03   -0.79923E-03   -0.80146E-03  2016   0.452E-02 0.159E-03
CGA:   8    -0.868984815128E+03   -0.25215E-03   -0.25285E-03  2016   0.166E-02 0.351E-04
CGA:   9    -0.868984989189E+03   -0.17406E-03   -0.17446E-03  2016   0.143E-02-0.153E-04
CGA:  10    -0.868985061506E+03   -0.72317E-04   -0.71858E-04  2016   0.524E-03-0.146E-04
CGA:  11    -0.868985105328E+03   -0.43822E-04   -0.43899E-04  2016   0.450E-03-0.969E-05
CGA:  12    -0.868985133377E+03   -0.28049E-04   -0.28009E-04  2016   0.177E-03-0.312E-05
CGA:  13    -0.868985149876E+03   -0.16499E-04   -0.16448E-04  2016   0.147E-03 0.295E-05
CGA:  14    -0.868985162576E+03   -0.12700E-04   -0.12670E-04  2016   0.996E-04 0.405E-05
CGA:  15    -0.868985171086E+03   -0.85096E-05   -0.84960E-05  2016   0.630E-04 0.249E-05
  11 F= -.86898517E+03 E0= -.86896448E+03  d E =-.311375E-02  mag=    14.0000
       N       E                     dE             d eps       ncg     rms          ort
SDA:   1    -0.868875057036E+03    0.11011E+00    0.00000E+00  2016   0.574E+00 0.000E+00
CGA:   2    -0.868907291249E+03   -0.32234E-01   -0.32114E-01  2016   0.517E+00-0.141E-02
CGA:   3    -0.868945604969E+03   -0.38314E-01   -0.38313E-01  2016   0.210E+00-0.120E-02
CGA:   4    -0.868966399943E+03   -0.20795E-01   -0.20797E-01  2016   0.171E+00-0.251E-03
CGA:   5    -0.868974297170E+03   -0.78972E-02   -0.78560E-02  2016   0.596E-01 0.345E-03
CGA:   6    -0.868981671430E+03   -0.73743E-02   -0.73424E-02  2016   0.355E-01 0.684E-03
CGA:   7    -0.868983324697E+03   -0.16533E-02   -0.16554E-02  2016   0.108E-01 0.143E-03
CGA:   8    -0.868984450463E+03   -0.11258E-02   -0.11262E-02  2016   0.915E-02-0.133E-04
CGA:   9    -0.868984904774E+03   -0.45431E-03   -0.45478E-03  2016   0.305E-02-0.294E-04
CGA:  10    -0.868985148725E+03   -0.24395E-03   -0.24403E-03  2016   0.262E-02-0.225E-04
CGA:  11    -0.868985318456E+03   -0.16973E-03   -0.16955E-03  2016   0.959E-03-0.133E-04
CGA:  12    -0.868985403700E+03   -0.85244E-04   -0.85204E-04  2016   0.761E-03 0.304E-05
CGA:  13    -0.868985460369E+03   -0.56668E-04   -0.56687E-04  2016   0.527E-03 0.619E-05
CGA:  14    -0.868985505644E+03   -0.45275E-04   -0.45219E-04  2016   0.346E-03 0.697E-05
CGA:  15    -0.868985528685E+03   -0.23041E-04   -0.23080E-04  2016   0.245E-03 0.309E-05
CGA:  16    -0.868985555382E+03   -0.26697E-04   -0.26652E-04  2016   0.244E-03 0.147E-05
CGA:  17    -0.868985569692E+03   -0.14310E-04   -0.14298E-04  2016   0.106E-03-0.774E-06
CGA:  18    -0.868985581668E+03   -0.11976E-04   -0.12080E-04  2016   0.148E-03-0.281E-05
CGA:  19    -0.868985592795E+03   -0.11127E-04   -0.11118E-04  2016   0.647E-04-0.419E-05
CGA:  20    -0.868985598149E+03   -0.53533E-05   -0.53730E-05  2016   0.652E-04-0.321E-05
  12 F= -.86898560E+03 E0= -.86896476E+03  d E =-.354081E-02  mag=    14.0000
       N       E                     dE             d eps       ncg     rms          ort
SDA:   1    -0.868979145480E+03    0.64473E-02    0.00000E+00  2016   0.114E+00 0.000E+00
CGA:   2    -0.868982087075E+03   -0.29416E-02   -0.30503E-02  2016   0.139E-01-0.272E-02
CGA:   3    -0.868983775990E+03   -0.16889E-02   -0.16699E-02  2016   0.115E-01 0.421E-03
CGA:   4    -0.868984569007E+03   -0.79302E-03   -0.79536E-03  2016   0.709E-02 0.187E-03
CGA:   5    -0.868985063832E+03   -0.49483E-03   -0.49542E-03  2016   0.370E-02 0.520E-04
CGA:   6    -0.868985312626E+03   -0.24879E-03   -0.24837E-03  2016   0.212E-02-0.364E-04
CGA:   7    -0.868985471723E+03   -0.15910E-03   -0.15896E-03  2016   0.124E-02-0.602E-04
CGA:   8    -0.868985541344E+03   -0.69622E-04   -0.69107E-04  2016   0.379E-03-0.269E-04
CGA:   9    -0.868985566083E+03   -0.24739E-04   -0.24723E-04  2016   0.237E-03-0.131E-05
CGA:  10    -0.868985584841E+03   -0.18758E-04   -0.18738E-04  2016   0.127E-03 0.665E-05
CGA:  11    -0.868985592238E+03   -0.73967E-05   -0.74731E-05  2016   0.550E-04 0.397E-05
  13 F= -.86898559E+03 E0= -.86896479E+03  d E =-.353490E-02  mag=    14.0000
       N       E                     dE             d eps       ncg     rms          ort
SDA:   1    -0.868919405608E+03    0.66179E-01    0.00000E+00  2016   0.311E+00 0.000E+00
CGA:   2    -0.868940787238E+03   -0.21382E-01   -0.21385E-01  2016   0.296E+00 0.438E-03
CGA:   3    -0.868960940546E+03   -0.20153E-01   -0.20170E-01  2016   0.150E+00 0.892E-03
CGA:   4    -0.868974518592E+03   -0.13578E-01   -0.13580E-01  2016   0.114E+00-0.121E-03
CGA:   5    -0.868980174637E+03   -0.56560E-02   -0.56527E-02  2016   0.390E-01-0.327E-04
CGA:   6    -0.868983666559E+03   -0.34919E-02   -0.34917E-02  2016   0.324E-01 0.860E-05
CGA:   7    -0.868985430228E+03   -0.17637E-02   -0.17634E-02  2016   0.745E-02-0.756E-05
CGA:   8    -0.868985958104E+03   -0.52788E-03   -0.52778E-03  2016   0.473E-02-0.175E-04
CGA:   9    -0.868986349043E+03   -0.39094E-03   -0.39102E-03  2016   0.237E-02-0.116E-04
CGA:  10    -0.868986495882E+03   -0.14684E-03   -0.14673E-03  2016   0.134E-02-0.828E-05
CGA:  11    -0.868986585075E+03   -0.89193E-04   -0.89165E-04  2016   0.739E-03-0.428E-05
CGA:  12    -0.868986638915E+03   -0.53840E-04   -0.53839E-04  2016   0.432E-03-0.111E-05
CGA:  13    -0.868986669738E+03   -0.30824E-04   -0.30826E-04  2016   0.268E-03 0.157E-05
CGA:  14    -0.868986691545E+03   -0.21807E-04   -0.21778E-04  2016   0.177E-03 0.393E-05
CGA:  15    -0.868986706556E+03   -0.15011E-04   -0.14972E-04  2016   0.984E-04 0.423E-05
CGA:  16    -0.868986713535E+03   -0.69791E-05   -0.69888E-05  2016   0.805E-04 0.204E-05
  14 F= -.86898671E+03 E0= -.86896583E+03  d E =-.112130E-02  mag=    14.0000
       N       E                     dE             d eps       ncg     rms          ort
SDA:   1    -0.868386095233E+03    0.60061E+00    0.00000E+00  2016   0.267E+01 0.000E+00
CGA:   2    -0.868577792917E+03   -0.19170E+00   -0.19171E+00  2016   0.279E+01 0.456E-02
CGA:   3    -0.868753956828E+03   -0.17616E+00   -0.17637E+00  2016   0.131E+01 0.561E-02
CGA:   4    -0.868880771516E+03   -0.12681E+00   -0.12743E+00  2016   0.103E+01-0.206E-01
CGA:   5    -0.868927286776E+03   -0.46515E-01   -0.46822E-01  2016   0.344E+00-0.134E-03
CGA:   6    -0.868960946399E+03   -0.33660E-01   -0.33591E-01  2016   0.280E+00 0.218E-02
CGA:   7    -0.868975605667E+03   -0.14659E-01   -0.14602E-01  2016   0.548E-01-0.835E-04
CGA:   8    -0.868980047018E+03   -0.44414E-02   -0.44421E-02  2016   0.510E-01-0.728E-04
CGA:   9    -0.868983667779E+03   -0.36208E-02   -0.36210E-02  2016   0.177E-01 0.670E-05
CGA:  10    -0.868984635222E+03   -0.96744E-03   -0.96636E-03  2016   0.118E-01 0.148E-03
CGA:  11    -0.868985666066E+03   -0.10308E-02   -0.10305E-02  2016   0.537E-02 0.133E-04
CGA:  12    -0.868986058979E+03   -0.39291E-03   -0.39292E-03  2016   0.378E-02 0.640E-05
CGA:  13    -0.868986339772E+03   -0.28079E-03   -0.28079E-03  2016   0.248E-02 0.816E-05
CGA:  14    -0.868986542485E+03   -0.20271E-03   -0.20262E-03  2016   0.168E-02 0.127E-04
CGA:  15    -0.868986652184E+03   -0.10970E-03   -0.10983E-03  2016   0.972E-03 0.106E-04
CGA:  16    -0.868986737558E+03   -0.85374E-04   -0.85293E-04  2016   0.100E-02 0.164E-04
CGA:  17    -0.868986819429E+03   -0.81871E-04   -0.81827E-04  2016   0.530E-03 0.743E-05
CGA:  18    -0.868986853671E+03   -0.34242E-04   -0.34264E-04  2016   0.351E-03 0.202E-05
CGA:  19    -0.868986895906E+03   -0.42235E-04   -0.42256E-04  2016   0.428E-03-0.330E-06
CGA:  20    -0.868986921300E+03   -0.25394E-04   -0.25390E-04  2016   0.174E-03-0.358E-06
CGA:  21    -0.868986938795E+03   -0.17495E-04   -0.17508E-04  2016   0.218E-03-0.483E-06
CGA:  22    -0.868986952841E+03   -0.14046E-04   -0.14035E-04  2016   0.800E-04-0.752E-06
CGA:  23    -0.868986959564E+03   -0.67233E-05   -0.67278E-05  2016   0.762E-04-0.667E-06
  15 F= -.86898696E+03 E0= -.86896589E+03  d E =-.136733E-02  mag=    14.0000
       N       E                     dE             d eps       ncg     rms          ort
SDA:   1    -0.868916398147E+03    0.70555E-01    0.00000E+00  2016   0.353E+00 0.000E+00
CGA:   2    -0.868937273164E+03   -0.20875E-01   -0.20806E-01  2016   0.313E+00-0.340E-03
CGA:   3    -0.868959759540E+03   -0.22486E-01   -0.22492E-01  2016   0.162E+00 0.554E-03
CGA:   4    -0.868973723699E+03   -0.13964E-01   -0.13961E-01  2016   0.125E+00 0.234E-03
CGA:   5    -0.868980557539E+03   -0.68338E-02   -0.68322E-02  2016   0.390E-01 0.439E-04
CGA:   6    -0.868984172365E+03   -0.36148E-02   -0.36142E-02  2016   0.345E-01 0.383E-04
CGA:   7    -0.868986084982E+03   -0.19126E-02   -0.19132E-02  2016   0.782E-02 0.146E-04
CGA:   8    -0.868986603384E+03   -0.51840E-03   -0.51864E-03  2016   0.487E-02 0.176E-04
CGA:   9    -0.868987029365E+03   -0.42598E-03   -0.42583E-03  2016   0.276E-02 0.169E-04
CGA:  10    -0.868987168224E+03   -0.13886E-03   -0.13904E-03  2016   0.123E-02 0.882E-05
CGA:  11    -0.868987269126E+03   -0.10090E-03   -0.10086E-03  2016   0.861E-03 0.598E-05
CGA:  12    -0.868987329218E+03   -0.60092E-04   -0.60105E-04  2016   0.327E-03 0.236E-05
CGA:  13    -0.868987357875E+03   -0.28657E-04   -0.28681E-04  2016   0.343E-03-0.184E-05
CGA:  14    -0.868987385292E+03   -0.27416E-04   -0.27439E-04  2016   0.156E-03-0.430E-05
CGA:  15    -0.868987395363E+03   -0.10071E-04   -0.10045E-04  2016   0.114E-03-0.252E-05
CGA:  16    -0.868987405767E+03   -0.10405E-04   -0.10457E-04  2016   0.110E-03-0.294E-05
CGA:  17    -0.868987413266E+03   -0.74990E-05   -0.74863E-05  2016   0.519E-04-0.195E-05
  16 F= -.86898741E+03 E0= -.86896642E+03  d E =-.182103E-02  mag=    14.0000
       N       E                     dE             d eps       ncg     rms          ort
SDA:   1    -0.868960584645E+03    0.26821E-01    0.00000E+00  2016   0.205E+00 0.000E+00
CGA:   2    -0.868968458001E+03   -0.78734E-02   -0.78651E-02  2016   0.896E-01 0.127E-04
CGA:   3    -0.868977627576E+03   -0.91696E-02   -0.91744E-02  2016   0.625E-01-0.186E-03
CGA:   4    -0.868982138011E+03   -0.45104E-02   -0.45101E-02  2016   0.511E-01-0.995E-04
CGA:   5    -0.868985274590E+03   -0.31366E-02   -0.31356E-02  2016   0.185E-01-0.439E-04
CGA:   6    -0.868986565787E+03   -0.12912E-02   -0.12913E-02  2016   0.112E-01 0.351E-04
CGA:   7    -0.868987448814E+03   -0.88303E-03   -0.88287E-03  2016   0.412E-02 0.456E-04
CGA:   8    -0.868987663112E+03   -0.21430E-03   -0.21452E-03  2016   0.147E-02 0.112E-04
CGA:   9    -0.868987802666E+03   -0.13955E-03   -0.13955E-03  2016   0.140E-02-0.181E-06
CGA:  10    -0.868987876848E+03   -0.74183E-04   -0.74084E-04  2016   0.459E-03-0.262E-05
CGA:  11    -0.868987910131E+03   -0.33282E-04   -0.33281E-04  2016   0.334E-03-0.177E-05
CGA:  12    -0.868987937310E+03   -0.27179E-04   -0.27188E-04  2016   0.134E-03-0.120E-05
CGA:  13    -0.868987945829E+03   -0.85193E-05   -0.85250E-05  2016   0.931E-04 0.601E-06
  17 F= -.86898795E+03 E0= -.86896689E+03  d E =-.532563E-03  mag=    14.0000
       N       E                     dE             d eps       ncg     rms          ort
SDA:   1    -0.868756889215E+03    0.23105E+00    0.00000E+00  2016   0.124E+01 0.000E+00
CGA:   2    -0.868823269431E+03   -0.66380E-01   -0.66252E-01  2016   0.987E+00-0.757E-03
CGA:   3    -0.868897982620E+03   -0.74713E-01   -0.74699E-01  2016   0.488E+00 0.328E-02
CGA:   4    -0.868943594313E+03   -0.45612E-01   -0.45636E-01  2016   0.459E+00-0.107E-02
CGA:   5    -0.868965811262E+03   -0.22217E-01   -0.22114E-01  2016   0.130E+00 0.610E-03
CGA:   6    -0.868979228932E+03   -0.13418E-01   -0.13395E-01  2016   0.103E+00 0.647E-03
CGA:   7    -0.868984575824E+03   -0.53469E-02   -0.53393E-02  2016   0.221E-01 0.874E-04
CGA:   8    -0.868986297468E+03   -0.17216E-02   -0.17217E-02  2016   0.179E-01 0.197E-05
CGA:   9    -0.868987548218E+03   -0.12508E-02   -0.12509E-02  2016   0.879E-02 0.126E-04
CGA:  10    -0.868988026853E+03   -0.47863E-03   -0.47813E-03  2016   0.423E-02-0.752E-05
CGA:  11    -0.868988390862E+03   -0.36401E-03   -0.36412E-03  2016   0.293E-02-0.678E-05
CGA:  12    -0.868988577978E+03   -0.18712E-03   -0.18714E-03  2016   0.117E-02 0.230E-06
CGA:  13    -0.868988686803E+03   -0.10882E-03   -0.10873E-03  2016   0.102E-02 0.456E-05
CGA:  14    -0.868988754836E+03   -0.68033E-04   -0.68072E-04  2016   0.616E-03 0.500E-05
CGA:  15    -0.868988802859E+03   -0.48024E-04   -0.47999E-04  2016   0.376E-03 0.565E-05
CGA:  16    -0.868988829454E+03   -0.26595E-04   -0.26601E-04  2016   0.325E-03 0.204E-05
CGA:  17    -0.868988862221E+03   -0.32767E-04   -0.32742E-04  2016   0.198E-03 0.978E-06
CGA:  18    -0.868988873994E+03   -0.11774E-04   -0.11771E-04  2016   0.110E-03-0.198E-06
CGA:  19    -0.868988887341E+03   -0.13346E-04   -0.13450E-04  2016   0.148E-03-0.214E-05
CGA:  20    -0.868988897048E+03   -0.97069E-05   -0.96884E-05  2016   0.635E-04-0.192E-05
  18 F= -.86898890E+03 E0= -.86896771E+03  d E =-.148378E-02  mag=    14.0000
       N       E                     dE             d eps       ncg     rms          ort
SDA:   1    -0.868980469005E+03    0.84183E-02    0.00000E+00  2016   0.137E+00 0.000E+00
CGA:   2    -0.868984094232E+03   -0.36252E-02   -0.37478E-02  2016   0.209E-01-0.325E-02
CGA:   3    -0.868986532738E+03   -0.24385E-02   -0.24483E-02  2016   0.190E-01-0.204E-03
CGA:   4    -0.868987916772E+03   -0.13840E-02   -0.13838E-02  2016   0.119E-01-0.834E-04
CGA:   5    -0.868988652624E+03   -0.73585E-03   -0.73624E-03  2016   0.661E-02 0.105E-04
CGA:   6    -0.868989117127E+03   -0.46450E-03   -0.46481E-03  2016   0.271E-02 0.513E-04
CGA:   7    -0.868989298389E+03   -0.18126E-03   -0.18150E-03  2016   0.189E-02 0.348E-04
CGA:   8    -0.868989414381E+03   -0.11599E-03   -0.11647E-03  2016   0.398E-03 0.316E-04
CGA:   9    -0.868989444089E+03   -0.29709E-04   -0.29712E-04  2016   0.366E-03 0.589E-05
CGA:  10    -0.868989471472E+03   -0.27383E-04   -0.27384E-04  2016   0.174E-03 0.353E-05
CGA:  11    -0.868989482290E+03   -0.10817E-04   -0.10824E-04  2016   0.725E-04 0.566E-06
CGA:  12    -0.868989488217E+03   -0.59276E-05   -0.59344E-05  2016   0.722E-04-0.820E-06
  19 F= -.86898949E+03 E0= -.86896831E+03  d E =-.591170E-03  mag=    14.0000
       N       E                     dE             d eps       ncg     rms          ort
SDA:   1    -0.868985251670E+03    0.42306E-02    0.00000E+00  2016   0.867E-01 0.000E+00
CGA:   2    -0.868987549149E+03   -0.22975E-02   -0.23686E-02  2016   0.893E-02-0.185E-02
CGA:   3    -0.868988300699E+03   -0.75155E-03   -0.75266E-03  2016   0.104E-01-0.794E-04
CGA:   4    -0.868989048953E+03   -0.74825E-03   -0.74831E-03  2016   0.428E-02-0.102E-03
CGA:   5    -0.868989409817E+03   -0.36086E-03   -0.36093E-03  2016   0.296E-02-0.364E-05
CGA:   6    -0.868989584786E+03   -0.17497E-03   -0.17536E-03  2016   0.126E-02 0.266E-04
CGA:   7    -0.868989673473E+03   -0.88687E-04   -0.88762E-04  2016   0.784E-03 0.299E-04
CGA:   8    -0.868989723916E+03   -0.50443E-04   -0.50638E-04  2016   0.262E-03 0.217E-04
CGA:   9    -0.868989739653E+03   -0.15737E-04   -0.15812E-04  2016   0.140E-03 0.597E-05
CGA:  10    -0.868989750653E+03   -0.11000E-04   -0.10988E-04  2016   0.990E-04 0.211E-05
CGA:  11    -0.868989757756E+03   -0.71031E-05   -0.71032E-05  2016   0.381E-04 0.190E-06
  20 F= -.86898976E+03 E0= -.86896858E+03  d E =-.860709E-03  mag=    14.0000
