       N       E                     dE             d eps       ncg     rms          ort
DAV:   1     0.140121669409E+05    0.14012E+05   -0.41259E+05  2016   0.175E+03
DAV:   2     0.190567340485E+04   -0.12106E+05   -0.11838E+05  2016   0.567E+02
DAV:   3    -0.762184562389E+03   -0.26679E+04   -0.25440E+04  2016   0.252E+02
DAV:   4    -0.109678204745E+04   -0.33460E+03   -0.33007E+03  2016   0.117E+02
DAV:   5    -0.111315865792E+04   -0.16377E+02   -0.15891E+02  2016   0.318E+01
SDA:   6    -0.228173875169E+03    0.88498E+03   -0.15891E+02  2016   0.468E+04 0.000E+00
CGA:   7    -0.711520497332E+03   -0.48335E+03   -0.52019E+03  2016   0.158E+04-0.538E+02
CGA:   8    -0.725947537981E+03   -0.14427E+02   -0.10096E+03  2016   0.165E+04-0.619E+03
CGA:   9    -0.710708110937E+03    0.15239E+02   -0.49227E+02  2016   0.400E+04-0.135E+04
CGA:  10    -0.578862803599E+03    0.13185E+03   -0.30554E+03  2016   0.153E+04-0.543E+03
CGA:  11    -0.658045355258E+03   -0.79183E+02   -0.86142E+02  2016   0.915E+03-0.816E+03
CGA:  12    -0.696054233307E+03   -0.38009E+02   -0.40068E+02  2016   0.597E+04-0.748E+04
CGA:  13    -0.633640946919E+03    0.62413E+02   -0.43925E+03  2016   0.102E+04-0.742E+03
CGA:  14    -0.771222871837E+03   -0.13758E+03   -0.43994E+02  2016   0.262E+04-0.483E+04
CGA:  15    -0.680039759423E+03    0.91183E+02   -0.15850E+03  2016   0.422E+04-0.111E+04
CGA:  16    -0.627302910964E+03    0.52737E+02   -0.16169E+03  2016   0.319E+04-0.980E+02
CGA:  17    -0.769048965193E+03   -0.14175E+03   -0.23439E+03  2016   0.132E+04-0.638E+03
CGA:  18    -0.800761199882E+03   -0.31712E+02   -0.66050E+02  2016   0.172E+04-0.759E+03
CGA:  19    -0.821211667537E+03   -0.20450E+02   -0.90622E+02  2016   0.732E+03-0.728E+03
CGA:  20    -0.839061305531E+03   -0.17850E+02   -0.17724E+02  2016   0.662E+03-0.430E+03
CGA:  21    -0.830861118877E+03    0.82002E+01   -0.29279E+02  2016   0.995E+03-0.443E+03
CGA:  22    -0.802603145166E+03    0.28258E+02   -0.42877E+02  2016   0.230E+04-0.704E+03
CGA:  23    -0.797049940080E+03    0.55532E+01   -0.95408E+02  2016   0.126E+04-0.124E+04
CGA:  24    -0.805574011208E+03   -0.85241E+01   -0.45741E+02  2016   0.218E+04-0.248E+04
CGA:  25    -0.796714767101E+03    0.88592E+01   -0.81485E+02  2016   0.129E+04-0.120E+04
CGA:  26    -0.800242857695E+03   -0.35281E+01   -0.43421E+02  2016   0.273E+04-0.268E+04
CGA:  27    -0.789677375307E+03    0.10565E+02   -0.10242E+03  2016   0.161E+04-0.146E+04
CGA:  28    -0.801587217117E+03   -0.11910E+02   -0.55229E+02  2016   0.235E+04-0.262E+04
CGA:  29    -0.801176600430E+03    0.41062E+00   -0.78379E+02  2016   0.151E+04-0.158E+04
CGA:  30    -0.808028352733E+03   -0.68518E+01   -0.45931E+02  2016   0.334E+04-0.353E+04
CGA:  31    -0.788846656838E+03    0.19182E+02   -0.11647E+03  2016   0.256E+04-0.201E+04
CGA:  32    -0.772308020320E+03    0.16539E+02   -0.86384E+02  2016   0.362E+04-0.296E+04
CGA:  33    -0.765257545779E+03    0.70505E+01   -0.12414E+03  2016   0.431E+04-0.376E+04
CGA:  34    -0.758379150677E+03    0.68784E+01   -0.15501E+03  2016   0.291E+04-0.267E+04
CGA:  35    -0.802363125408E+03   -0.43984E+02   -0.91045E+02  2016   0.181E+04-0.269E+04
CGA:  36    -0.848341202656E+03   -0.45978E+02   -0.47209E+02  2016   0.942E+03-0.194E+04
CGA:  37    -0.852758129849E+03   -0.44169E+01   -0.19889E+02  2016   0.967E+03-0.100E+04
CGA:  38    -0.857786881667E+03   -0.50288E+01   -0.17469E+02  2016   0.675E+03-0.831E+03
CGA:  39    -0.860274810921E+03   -0.24879E+01   -0.12212E+02  2016   0.464E+03-0.540E+03
CGA:  40    -0.863969966700E+03   -0.36952E+01   -0.70565E+01  2016   0.157E+03-0.274E+03
CGA:  41    -0.865220283264E+03   -0.12503E+01   -0.22201E+01  2016   0.373E+02-0.657E+02
CGA:  42    -0.865737957103E+03   -0.51767E+00   -0.53613E+00  2016   0.529E+01-0.557E+00
CGA:  43    -0.865948952958E+03   -0.21100E+00   -0.22185E+00  2016   0.117E+02 0.381E-01
CGA:  44    -0.867132203428E+03   -0.11833E+01   -0.11776E+01  2016   0.182E+02 0.224E+00
CGA:  45    -0.867911746491E+03   -0.77954E+00   -0.83227E+00  2016   0.670E+01 0.589E+00
CGA:  46    -0.868110614472E+03   -0.19887E+00   -0.22052E+00  2016   0.290E+01-0.339E+00
CGA:  47    -0.868294515235E+03   -0.18390E+00   -0.18316E+00  2016   0.322E+01 0.658E-01
CGA:  48    -0.868514241607E+03   -0.21973E+00   -0.21789E+00  2016   0.213E+01 0.180E+00
CGA:  49    -0.868639247701E+03   -0.12501E+00   -0.12525E+00  2016   0.166E+01 0.210E-01
CGA:  50    -0.868740816537E+03   -0.10157E+00   -0.10149E+00  2016   0.121E+01 0.103E+00
CGA:  51    -0.868845742809E+03   -0.10493E+00   -0.10402E+00  2016   0.119E+01 0.312E-01
CGA:  52    -0.868921345865E+03   -0.75603E-01   -0.75557E-01  2016   0.586E+00 0.441E-01
CGA:  53    -0.868961991217E+03   -0.40645E-01   -0.40555E-01  2016   0.434E+00 0.945E-02
CGA:  54    -0.869007079684E+03   -0.45088E-01   -0.43390E-01  2016   0.483E+00 0.391E-01
CGA:  55    -0.869049933683E+03   -0.42854E-01   -0.42699E-01  2016   0.248E+00 0.583E-02
CGA:  56    -0.869073082336E+03   -0.23149E-01   -0.22567E-01  2016   0.221E+00 0.175E-01
CGA:  57    -0.869094126716E+03   -0.21044E-01   -0.20953E-01  2016   0.158E+00 0.265E-02
CGA:  58    -0.869109371663E+03   -0.15245E-01   -0.15076E-01  2016   0.113E+00 0.468E-02
CGA:  59    -0.869120330708E+03   -0.10959E-01   -0.10965E-01  2016   0.905E-01-0.478E-03
CGA:  60    -0.869129681747E+03   -0.93510E-02   -0.92599E-02  2016   0.717E-01 0.227E-02
CGA:  61    -0.869135915046E+03   -0.62333E-02   -0.62524E-02  2016   0.432E-01-0.989E-03
CGA:  62    -0.869140086261E+03   -0.41712E-02   -0.41547E-02  2016   0.352E-01 0.533E-03
CGA:  63    -0.869143634586E+03   -0.35483E-02   -0.35547E-02  2016   0.261E-01-0.163E-03
CGA:  64    -0.869146250851E+03   -0.26163E-02   -0.25996E-02  2016   0.178E-01 0.544E-03
CGA:  65    -0.869148051026E+03   -0.18002E-02   -0.17985E-02  2016   0.151E-01 0.861E-04
CGA:  66    -0.869149551102E+03   -0.15001E-02   -0.14903E-02  2016   0.997E-02 0.374E-03
CGA:  67    -0.869150482369E+03   -0.93127E-03   -0.93050E-03  2016   0.697E-02 0.662E-04
CGA:  68    -0.869151258200E+03   -0.77583E-03   -0.77129E-03  2016   0.617E-02 0.135E-03
CGA:  69    -0.869151803572E+03   -0.54537E-03   -0.54530E-03  2016   0.328E-02 0.217E-04
CGA:  70    -0.869152150341E+03   -0.34677E-03   -0.34622E-03  2016   0.307E-02 0.204E-04
SDA:  71    -0.869152441912E+03   -0.29157E-03   -0.29169E-03  2016   0.190E-02-0.532E-05
CGA:  72    -0.869152524101E+03   -0.82188E-04   -0.82171E-04  2016   0.735E-03-0.316E-05
CGA:  73    -0.869152697871E+03   -0.17377E-03   -0.17732E-03  2016   0.165E-02-0.224E-04
CGA:  74    -0.869152839236E+03   -0.14136E-03   -0.14137E-03  2016   0.972E-03-0.234E-04
CGA:  75    -0.869152944555E+03   -0.10532E-03   -0.10595E-03  2016   0.981E-03-0.280E-04
CGA:  76    -0.869153039456E+03   -0.94901E-04   -0.95195E-04  2016   0.560E-03-0.284E-04
CGA:  77    -0.869153097183E+03   -0.57727E-04   -0.58033E-04  2016   0.348E-03-0.179E-04
CGA:  78    -0.869153139574E+03   -0.42390E-04   -0.42698E-04  2016   0.307E-03-0.868E-05
CGA:  79    -0.869153173325E+03   -0.33752E-04   -0.33821E-04  2016   0.201E-03-0.358E-05
CGA:  80    -0.869153192470E+03   -0.19144E-04   -0.19141E-04  2016   0.129E-03 0.126E-05
CGA:  81    -0.869153211629E+03   -0.19159E-04   -0.18874E-04  2016   0.134E-03 0.542E-05
CGA:  82    -0.869153224079E+03   -0.12450E-04   -0.12488E-04  2016   0.932E-04 0.532E-05
CGA:  83    -0.869153233273E+03   -0.91941E-05   -0.92007E-05  2016   0.981E-04 0.553E-05
CGA:  84    -0.869153246840E+03   -0.13567E-04   -0.13279E-04  2016   0.542E-04 0.892E-05
CGA:  85    -0.869153251711E+03   -0.48714E-05   -0.49030E-05  2016   0.505E-04 0.212E-05
   1 F= -.86915325E+03 E0= -.86913782E+03  d E =-.869153E+03  mag=    14.0000
       N       E                     dE             d eps       ncg     rms          ort
SDA:   1    -0.869150306779E+03    0.29401E-02    0.00000E+00  2016   0.222E-01 0.000E+00
CGA:   2    -0.869151523767E+03   -0.12170E-02   -0.12192E-02  2016   0.808E-02-0.432E-05
CGA:   3    -0.869152319172E+03   -0.79540E-03   -0.79545E-03  2016   0.582E-02-0.117E-04
CGA:   4    -0.869152862445E+03   -0.54327E-03   -0.54331E-03  2016   0.309E-02 0.566E-05
CGA:   5    -0.869153116190E+03   -0.25374E-03   -0.25367E-03  2016   0.178E-02-0.947E-06
CGA:   6    -0.869153257556E+03   -0.14137E-03   -0.14143E-03  2016   0.735E-03 0.297E-05
CGA:   7    -0.869153302154E+03   -0.44598E-04   -0.44591E-04  2016   0.298E-03 0.117E-06
CGA:   8    -0.869153326985E+03   -0.24831E-04   -0.24821E-04  2016   0.115E-03-0.933E-06
CGA:   9    -0.869153338913E+03   -0.11928E-04   -0.11941E-04  2016   0.791E-04-0.107E-05
CGA:  10    -0.869153344764E+03   -0.58510E-05   -0.58406E-05  2016   0.284E-04-0.585E-06
   2 F= -.86915334E+03 E0= -.86913794E+03  d E =-.930527E-04  mag=    14.0000
