 vasp.6.4.2 20Jul23 (build Aug 10 2025 13:33:00) complex                        
  
 POSCAR found type information on POSCAR CaV O 
 05/POSCAR found :  3 types and     137 ions
 Reading from existing POTCAR
 scaLAPACK will be used
 Reading from existing POTCAR
 -----------------------------------------------------------------------------
|                                                                             |
|               ----> ADVICE to this user running VASP <----                  |
|                                                                             |
|     You have a (more or less) 'large supercell' and for larger cells it     |
|     might be more efficient to use real-space projection operators.         |
|     Therefore, try LREAL= Auto in the INCAR file.                           |
|     Mind: For very accurate calculation, you might also keep the            |
|     reciprocal projection scheme (i.e. LREAL=.FALSE.).                      |
|                                                                             |
 -----------------------------------------------------------------------------

 LDA part: xc-table for Pade appr. of Perdew
 POSCAR found type information on POSCAR CaV O 
 00/POSCAR found :  3 types and     137 ions
 POSCAR found type information on POSCAR CaV O 
 06/POSCAR found :  3 types and     137 ions
 Jacobian:    27.0794354869960     
 POSCAR found type information on POSCAR CaV O 
 00/POSCAR found :  3 types and     137 ions
 POSCAR found type information on POSCAR CaV O 
 06/POSCAR found :  3 types and     137 ions
 POSCAR, INCAR and KPOINTS ok, starting setup
 FFT: planning ... GRIDC
 FFT: planning ... GRID_SOFT
 FFT: planning ... GRID
 WAVECAR not read
 entering main loop
       N       E                     dE             d eps       ncg     rms          ort
DAV:   1     0.147636723999E+05    0.14764E+05   -0.58495E+05  1320   0.173E+03
DAV:   2     0.123358439236E+04   -0.13530E+05   -0.13014E+05  1320   0.527E+02
DAV:   3    -0.132149987181E+04   -0.25551E+04   -0.24743E+04  1320   0.207E+02
DAV:   4    -0.148700875175E+04   -0.16551E+03   -0.16111E+03  1320   0.600E+01
DAV:   5    -0.149564650418E+04   -0.86378E+01   -0.80481E+01  1320   0.121E+01
 gam= 0.000 g(H,U,f)=  0.567E+04 0.291E+04 0.169E+04 ort(H,U,f) = 0.000E+00 0.000E+00 0.000E+00
SDA:   6     0.104686947232E+03    0.16003E+04   -0.80481E+01  1320   0.103E+05 0.000E+00
 gam= 0.000 trial= 0.400  step= 0.236 mean= 0.400
 gam= 0.111 g(H,U,f)=  0.441E+03 0.645E+03 0.493E+02 ort(H,U,f) = 0.649E+02 0.425E+03-0.289E+02
CGA:   7    -0.901039088875E+03   -0.10057E+04   -0.12113E+04  1320   0.113E+04 0.461E+03
 gam= 0.111 trial= 0.392  step= 0.147 mean= 0.392
 gam= 0.880 g(H,U,f)=  0.303E+03 0.658E+03 0.368E+02 ort(H,U,f) = 0.136E+03-0.231E+03-0.194E+02
CGA:   8    -0.969493433307E+03   -0.68454E+02   -0.87235E+02  1320   0.998E+03-0.114E+03
 gam= 0.880 trial= 0.380  step= 0.135 mean= 0.380
 gam= 1.751 g(H,U,f)=  0.303E+03 0.124E+04 0.201E+03 ort(H,U,f) = 0.884E+02-0.168E+03 0.150E+01
CGA:   9    -0.100560170642E+04   -0.36108E+02   -0.60815E+02  1320   0.175E+04-0.783E+02
 gam= 1.751 trial= 0.367  step= 0.089 mean= 0.367
 gam= 0.000 g(H,U,f)=  0.371E+03 0.993E+03 0.509E+02 ort(H,U,f) =-0.173E+03-0.717E+03-0.546E+02
CGA:  10    -0.103126543700E+04   -0.25664E+02   -0.71661E+02  1320   0.142E+04-0.945E+03
 gam= 0.000 trial= 0.353  step= 0.107 mean= 0.353
 gam= 0.000 g(H,U,f)=  0.262E+03 0.132E+04 0.116E+03 ort(H,U,f) = 0.621E+02-0.100E+04-0.791E+02
CGA:  11    -0.104364035577E+04   -0.12375E+02   -0.75968E+02  1320   0.170E+04-0.102E+04
 gam= 0.000 trial= 0.341  step= 0.096 mean= 0.341
 gam= 0.000 g(H,U,f)=  0.215E+03 0.181E+04 0.374E+02 ort(H,U,f) =-0.623E+02-0.171E+04-0.327E+02
CGA:  12    -0.104797631232E+04   -0.43360E+01   -0.81649E+02  1320   0.206E+04-0.180E+04
 gam= 0.000 trial= 0.329  step= 0.100 mean= 0.329
 gam= 0.000 g(H,U,f)=  0.256E+03 0.226E+04 0.451E+03 ort(H,U,f) =-0.133E+03-0.191E+04-0.370E+03
CGA:  13    -0.103434571453E+04    0.13631E+02   -0.10308E+03  1320   0.296E+04-0.241E+04
 gam= 0.000 trial= 0.317  step= 0.106 mean= 0.317
 gam= 0.000 g(H,U,f)=  0.330E+03 0.237E+04 0.142E+03 ort(H,U,f) =-0.221E+03-0.187E+04-0.101E+03
CGA:  14    -0.100526273423E+04    0.29083E+02   -0.15650E+03  1320   0.284E+04-0.220E+04
 gam= 0.000 trial= 0.307  step= 0.098 mean= 0.307
 gam= 0.000 g(H,U,f)=  0.364E+03 0.342E+04 0.444E+03 ort(H,U,f) =-0.305E+03-0.317E+04-0.403E+03
CGA:  15    -0.994688294532E+03    0.10574E+02   -0.13987E+03  1320   0.423E+04-0.388E+04
 gam= 0.000 trial= 0.296  step= 0.106 mean= 0.296
 gam= 0.000 g(H,U,f)=  0.444E+03 0.389E+04 0.244E+03 ort(H,U,f) =-0.365E+03-0.335E+04-0.204E+03
CGA:  16    -0.964056018663E+03    0.30632E+02   -0.22438E+03  1320   0.458E+04-0.392E+04
 gam= 0.000 trial= 0.287  step= 0.105 mean= 0.287
 gam= 0.000 g(H,U,f)=  0.489E+03 0.260E+04 0.117E+03 ort(H,U,f) =-0.445E+03-0.248E+04-0.112E+03
CGA:  17    -0.949447360097E+03    0.14609E+02   -0.24122E+03  1320   0.321E+04-0.304E+04
 gam= 0.000 trial= 0.278  step= 0.089 mean= 0.278
 gam= 0.000 g(H,U,f)=  0.296E+03 0.274E+04 0.127E+03 ort(H,U,f) =-0.358E+03-0.354E+04-0.169E+03
CGA:  18    -0.101222395990E+04   -0.62777E+02   -0.14315E+03  1320   0.316E+04-0.407E+04
 gam= 0.000 trial= 0.268  step= 0.090 mean= 0.268
 gam= 0.000 g(H,U,f)=  0.250E+03 0.317E+04 0.264E+03 ort(H,U,f) =-0.258E+03-0.361E+04-0.305E+03
CGA:  19    -0.102920734670E+04   -0.16983E+02   -0.14199E+03  1320   0.368E+04-0.417E+04
 gam= 0.000 trial= 0.259  step= 0.090 mean= 0.259
 gam= 0.000 g(H,U,f)=  0.240E+03 0.233E+04 0.292E+03 ort(H,U,f) =-0.230E+03-0.236E+04-0.293E+03
CGA:  20    -0.103107390345E+04   -0.18666E+01   -0.16641E+03  1320   0.287E+04-0.288E+04
 gam= 0.000 trial= 0.251  step= 0.082 mean= 0.251
 gam= 0.000 g(H,U,f)=  0.174E+03 0.218E+04 0.504E+03 ort(H,U,f) =-0.195E+03-0.263E+04-0.612E+03
CGA:  21    -0.105627689732E+04   -0.25203E+02   -0.11787E+03  1320   0.286E+04-0.344E+04
 gam= 0.000 trial= 0.243  step= 0.079 mean= 0.243
 gam= 0.000 g(H,U,f)=  0.127E+03 0.143E+04 0.918E+02 ort(H,U,f) =-0.137E+03-0.166E+04-0.113E+03
CGA:  22    -0.107269779455E+04   -0.16421E+02   -0.11280E+03  1320   0.165E+04-0.191E+04
 gam= 0.000 trial= 0.234  step= 0.064 mean= 0.234
 gam= 0.000 g(H,U,f)=  0.391E+02 0.534E+03 0.506E+02 ort(H,U,f) =-0.599E+02-0.103E+04-0.937E+02
CGA:  23    -0.110615426206E+04   -0.33456E+02   -0.52381E+02  1320   0.623E+03-0.118E+04
 gam= 0.000 trial= 0.226  step= 0.057 mean= 0.226
 gam= 0.237 g(H,U,f)=  0.120E+02 0.129E+03 0.694E+01 ort(H,U,f) =-0.112E+02-0.252E+03-0.145E+02
CGA:  24    -0.111635379044E+04   -0.10200E+02   -0.17745E+02  1320   0.148E+03-0.278E+03
 gam= 0.237 trial= 0.217  step= 0.046 mean= 0.217
 gam= 0.250 g(H,U,f)=  0.514E+01 0.301E+02 0.171E+01 ort(H,U,f) = 0.638E+01 0.359E+02 0.231E+01
CGA:  25    -0.111932292804E+04   -0.29691E+01   -0.18866E+01  1320   0.369E+02 0.446E+02
 gam= 0.250 trial= 0.209  step= 0.034 mean= 0.209
 gam= 0.263 g(H,U,f)=  0.362E+01 0.596E+01 0.112E+00 ort(H,U,f) = 0.419E+01-0.176E+01-0.162E+00
CGA:  26    -0.112020303716E+04   -0.88011E+00   -0.81653E+00  1320   0.970E+01 0.227E+01
 gam= 0.263 trial= 0.200  step= 0.414 mean= 0.200
 gam= 8.934 g(H,U,f)=  0.661E+01 0.705E+02 0.955E+01 ort(H,U,f) = 0.190E+01-0.334E+01 0.432E-01
CGA:  27    -0.112217958462E+04   -0.19765E+01   -0.21297E+01  1320   0.866E+02-0.139E+01
 gam= 8.934 trial= 0.211  step= 0.055 mean= 0.211
 gam= 0.677 g(H,U,f)=  0.867E+01 0.465E+02 0.355E+01 ort(H,U,f) =-0.563E+01-0.282E+01-0.328E+01
CGA:  28    -0.112366052927E+04   -0.14809E+01   -0.20301E+01  1320   0.587E+02-0.117E+02
 gam= 0.677 trial= 0.203  step= 0.042 mean= 0.203
 gam= 0.461 g(H,U,f)=  0.692E+01 0.195E+02 0.617E+00 ort(H,U,f) =-0.819E+01-0.829E+01 0.204E+00
CGA:  29    -0.112433277933E+04   -0.67225E+00   -0.10656E+01  1320   0.271E+02-0.163E+02
 gam= 0.461 trial= 0.195  step= 0.056 mean= 0.195
 gam= 0.636 g(H,U,f)=  0.468E+01 0.120E+02 0.548E+00 ort(H,U,f) =-0.216E+01-0.789E+00 0.592E+00
CGA:  30    -0.112478147539E+04   -0.44870E+00   -0.54921E+00  1320   0.172E+02-0.236E+01
 gam= 0.636 trial= 0.188  step= 0.051 mean= 0.188
 gam= 0.361 g(H,U,f)=  0.309E+01 0.311E+01 0.185E-01 ort(H,U,f) =-0.152E+00-0.681E+00-0.162E-01
CGA:  31    -0.112515072140E+04   -0.36925E+00   -0.40382E+00  1320   0.621E+01-0.850E+00
 gam= 0.361 trial= 0.181  step= 0.069 mean= 0.181
 gam= 0.925 g(H,U,f)=  0.233E+01 0.327E+01 0.146E+00 ort(H,U,f) = 0.168E+01-0.147E+01-0.115E+00
CGA:  32    -0.112535725299E+04   -0.20653E+00   -0.20295E+00  1320   0.575E+01 0.993E-01
 gam= 0.925 trial= 0.176  step= 0.108 mean= 0.176
 gam= 1.192 g(H,U,f)=  0.189E+01 0.488E+01 0.811E-01 ort(H,U,f) = 0.123E+01-0.121E+01-0.106E-01
CGA:  33    -0.112567314907E+04   -0.31590E+00   -0.31544E+00  1320   0.685E+01 0.543E-02
 gam= 1.192 trial= 0.172  step= 0.075 mean= 0.172
 gam= 0.869 g(H,U,f)=  0.187E+01 0.397E+01 0.118E+00 ort(H,U,f) = 0.717E+00-0.668E+00-0.670E-01
CGA:  34    -0.112592894732E+04   -0.25580E+00   -0.25611E+00  1320   0.595E+01-0.181E-01
 gam= 0.869 trial= 0.167  step= 0.103 mean= 0.167
 gam= 1.245 g(H,U,f)=  0.173E+01 0.533E+01 0.352E+00 ort(H,U,f) =-0.203E+00 0.218E+00-0.282E-01
CGA:  35    -0.112623055302E+04   -0.30161E+00   -0.30603E+00  1320   0.741E+01-0.132E-01
 gam= 1.245 trial= 0.164  step= 0.069 mean= 0.164
 gam= 0.485 g(H,U,f)=  0.152E+01 0.198E+01 0.983E-01 ort(H,U,f) =-0.136E+01 0.162E+01-0.624E-01
CGA:  36    -0.112649339424E+04   -0.26284E+00   -0.25504E+00  1320   0.360E+01 0.190E+00
 gam= 0.485 trial= 0.159  step= 0.065 mean= 0.159
 gam= 0.762 g(H,U,f)=  0.124E+01 0.140E+01 0.102E+00 ort(H,U,f) = 0.108E+00 0.215E+00-0.156E+00
CGA:  37    -0.112662083149E+04   -0.12744E+00   -0.11955E+00  1320   0.274E+01 0.168E+00
 gam= 0.762 trial= 0.155  step= 0.083 mean= 0.155
 gam= 0.943 g(H,U,f)=  0.907E+00 0.157E+01 0.101E+00 ort(H,U,f) = 0.496E+00-0.465E+00-0.879E-02
CGA:  38    -0.112674280758E+04   -0.12198E+00   -0.11953E+00  1320   0.258E+01 0.220E-01
 gam= 0.943 trial= 0.151  step= 0.068 mean= 0.151
 gam= 0.837 g(H,U,f)=  0.684E+00 0.126E+01 0.221E+00 ort(H,U,f) = 0.573E+00-0.686E+00 0.112E+00
CGA:  39    -0.112683143030E+04   -0.88623E-01   -0.88298E-01  1320   0.216E+01-0.112E-02
 gam= 0.837 trial= 0.147  step= 0.079 mean= 0.147
 gam= 0.887 g(H,U,f)=  0.550E+00 0.127E+01 0.102E+00 ort(H,U,f) = 0.373E+00-0.466E+00 0.716E-01
CGA:  40    -0.112691526208E+04   -0.83832E-01   -0.85065E-01  1320   0.192E+01-0.210E-01
 gam= 0.887 trial= 0.143  step= 0.066 mean= 0.143
 gam= 0.821 g(H,U,f)=  0.477E+00 0.975E+00 0.123E+00 ort(H,U,f) = 0.325E+00-0.904E-01-0.231E+00
CGA:  41    -0.112697872987E+04   -0.63468E-01   -0.62522E-01  1320   0.158E+01 0.345E-02
 gam= 0.821 trial= 0.140  step= 0.080 mean= 0.140
 gam= 0.936 g(H,U,f)=  0.386E+00 0.971E+00 0.117E+00 ort(H,U,f) = 0.208E+00-0.912E-01-0.116E+00
CGA:  42    -0.112704219469E+04   -0.63465E-01   -0.62804E-01  1320   0.147E+01 0.718E-03
 gam= 0.936 trial= 0.137  step= 0.058 mean= 0.137
 gam= 0.641 g(H,U,f)=  0.337E+00 0.524E+00 0.834E-01 ort(H,U,f) = 0.169E+00-0.175E+00-0.257E-02
CGA:  43    -0.112708464971E+04   -0.42455E-01   -0.42592E-01  1320   0.945E+00-0.850E-02
 gam= 0.641 trial= 0.133  step= 0.086 mean= 0.133
 gam= 1.328 g(H,U,f)=  0.290E+00 0.686E+00 0.279E+00 ort(H,U,f) = 0.129E+00-0.230E+00 0.988E-01
CGA:  44    -0.112712512618E+04   -0.40476E-01   -0.40464E-01  1320   0.125E+01-0.211E-02
 gam= 1.328 trial= 0.130  step= 0.071 mean= 0.130
 gam= 0.638 g(H,U,f)=  0.256E+00 0.460E+00 0.843E-01 ort(H,U,f) =-0.513E-01-0.129E+00 0.167E+00
CGA:  45    -0.112716835138E+04   -0.43225E-01   -0.44205E-01  1320   0.801E+00-0.136E-01
 gam= 0.638 trial= 0.127  step= 0.066 mean= 0.127
 gam= 0.740 g(H,U,f)=  0.223E+00 0.363E+00 0.655E-02 ort(H,U,f) = 0.524E-02-0.111E-01-0.128E-01
CGA:  46    -0.112719302164E+04   -0.24670E-01   -0.25982E-01  1320   0.592E+00-0.187E-01
 gam= 0.740 trial= 0.124  step= 0.093 mean= 0.124
 gam= 0.776 g(H,U,f)=  0.179E+00 0.263E+00 0.179E-01 ort(H,U,f) = 0.165E-01-0.204E-01 0.206E-02
CGA:  47    -0.112721995383E+04   -0.26932E-01   -0.26779E-01  1320   0.460E+00-0.181E-02
 gam= 0.776 trial= 0.123  step= 0.067 mean= 0.123
 gam= 0.772 g(H,U,f)=  0.159E+00 0.176E+00 0.202E-01 ort(H,U,f) = 0.841E-01-0.104E+00 0.216E-01
CGA:  48    -0.112723545280E+04   -0.15499E-01   -0.15358E-01  1320   0.355E+00 0.118E-02
 gam= 0.772 trial= 0.120  step= 0.117 mean= 0.120
 gam= 1.679 g(H,U,f)=  0.134E+00 0.408E+00 0.533E-01 ort(H,U,f) = 0.850E-01-0.105E+00 0.164E-01
CGA:  49    -0.112725626945E+04   -0.20817E-01   -0.20805E-01  1320   0.596E+00-0.373E-02
 gam= 1.679 trial= 0.120  step= 0.075 mean= 0.120
 gam= 0.641 g(H,U,f)=  0.124E+00 0.246E+00 0.124E-01 ort(H,U,f) = 0.438E-02-0.186E-01 0.161E-01
CGA:  50    -0.112727789356E+04   -0.21624E-01   -0.22069E-01  1320   0.382E+00 0.189E-02
 gam= 0.641 trial= 0.117  step= 0.069 mean= 0.117
 gam= 0.863 g(H,U,f)=  0.110E+00 0.210E+00 0.961E-02 ort(H,U,f) = 0.115E-01 0.303E-02-0.121E-01
CGA:  51    -0.112729129693E+04   -0.13403E-01   -0.13270E-01  1320   0.330E+00 0.250E-02
 gam= 0.863 trial= 0.115  step= 0.084 mean= 0.115
 gam= 0.791 g(H,U,f)=  0.898E-01 0.157E+00 0.142E-01 ort(H,U,f) =-0.243E-02 0.134E-01-0.102E-01
CGA:  52    -0.112730516984E+04   -0.13873E-01   -0.13859E-01  1320   0.261E+00 0.774E-03
 gam= 0.791 trial= 0.114  step= 0.059 mean= 0.114
 gam= 0.638 g(H,U,f)=  0.792E-01 0.841E-01 0.312E-02 ort(H,U,f) = 0.238E-01-0.223E-01-0.112E-02
CGA:  53    -0.112731280933E+04   -0.76395E-02   -0.76815E-02  1320   0.166E+00 0.324E-03
 gam= 0.638 trial= 0.111  step= 0.092 mean= 0.111
 gam= 0.000 g(H,U,f)=  0.652E-01 0.129E+00 0.844E-02 ort(H,U,f) = 0.395E-01-0.356E-01-0.274E-02
SDA:  54    -0.112732046734E+04   -0.76580E-02   -0.76741E-02  1320   0.202E+00 0.112E-02
 gam= 0.000 trial= 0.110  step= 0.081 mean= 0.110
 gam= 0.561 g(H,U,f)=  0.452E-01 0.632E-01 0.511E-02 ort(H,U,f) = 0.448E-01-0.394E-01-0.572E-02
CGA:  55    -0.112732871846E+04   -0.82511E-02   -0.82161E-02  1320   0.114E+00-0.304E-03
 gam= 0.561 trial= 0.108  step= 0.205 mean= 0.108
 gam= 0.719 g(H,U,f)=  0.266E-01 0.535E-01 0.146E-02 ort(H,U,f) = 0.249E-01-0.238E-01-0.106E-02
CGA:  56    -0.112734033293E+04   -0.11614E-01   -0.11609E-01  1320   0.816E-01 0.118E-03
 gam= 0.719 trial= 0.113  step= 0.248 mean= 0.113
 gam= 0.764 g(H,U,f)=  0.163E-01 0.436E-01 0.234E-02 ort(H,U,f) = 0.480E-02-0.440E-02-0.252E-03
CGA:  57    -0.112735044982E+04   -0.10117E-01   -0.10105E-01  1320   0.623E-01 0.149E-03
 gam= 0.764 trial= 0.120  step= 0.148 mean= 0.120
 gam= 0.561 g(H,U,f)=  0.107E-01 0.233E-01 0.875E-03 ort(H,U,f) = 0.149E-02-0.120E-02-0.338E-03
CGA:  58    -0.112735506936E+04   -0.46195E-02   -0.46218E-02  1320   0.349E-01-0.474E-04
 gam= 0.561 trial= 0.121  step= 0.146 mean= 0.121
 gam= 0.883 g(H,U,f)=  0.766E-02 0.217E-01 0.150E-02 ort(H,U,f) = 0.328E-02-0.229E-02-0.851E-03
CGA:  59    -0.112735762391E+04   -0.25546E-02   -0.25529E-02  1320   0.308E-01 0.139E-03
 gam= 0.883 trial= 0.123  step= 0.129 mean= 0.123
 gam= 0.747 g(H,U,f)=  0.595E-02 0.159E-01 0.114E-02 ort(H,U,f) = 0.307E-02-0.225E-02-0.827E-03
CGA:  60    -0.112735962333E+04   -0.19994E-02   -0.19999E-02  1320   0.230E-01-0.950E-05
 gam= 0.747 trial= 0.123  step= 0.203 mean= 0.123
 gam= 0.694 g(H,U,f)=  0.520E-02 0.105E-01 0.323E-03 ort(H,U,f) = 0.658E-03-0.339E-03-0.117E-03
CGA:  61    -0.112736197527E+04   -0.23519E-02   -0.23436E-02  1320   0.160E-01 0.203E-03
 gam= 0.694 trial= 0.127  step= 0.215 mean= 0.127
 gam= 0.789 g(H,U,f)=  0.417E-02 0.831E-02 0.140E-03 ort(H,U,f) = 0.933E-03-0.760E-03-0.922E-04
CGA:  62    -0.112736371513E+04   -0.17399E-02   -0.17367E-02  1320   0.126E-01 0.815E-04
 gam= 0.789 trial= 0.131  step= 0.224 mean= 0.131
 gam= 1.068 g(H,U,f)=  0.324E-02 0.924E-02 0.992E-03 ort(H,U,f) = 0.478E-03-0.158E-03-0.209E-03
CGA:  63    -0.112736514263E+04   -0.14275E-02   -0.14226E-02  1320   0.135E-01 0.111E-03
 gam= 1.068 trial= 0.136  step= 0.101 mean= 0.136
 gam= 0.675 g(H,U,f)=  0.288E-02 0.578E-02 0.434E-03 ort(H,U,f) = 0.137E-02-0.873E-03-0.413E-03
CGA:  64    -0.112736582980E+04   -0.68717E-03   -0.68869E-03  1320   0.910E-02 0.835E-04
 gam= 0.675 trial= 0.134  step= 0.200 mean= 0.134
 gam= 0.707 g(H,U,f)=  0.235E-02 0.401E-02 0.627E-04 ort(H,U,f) = 0.831E-03-0.769E-03-0.766E-04
CGA:  65    -0.112736674471E+04   -0.91491E-03   -0.91596E-03  1320   0.643E-02-0.150E-04
 gam= 0.707 trial= 0.138  step= 0.285 mean= 0.138
 gam= 1.127 g(H,U,f)=  0.186E-02 0.521E-02 0.179E-03 ort(H,U,f) = 0.367E-03-0.356E-03-0.708E-04
CGA:  66    -0.112736765401E+04   -0.90930E-03   -0.91337E-03  1320   0.725E-02-0.595E-04
 gam= 1.127 trial= 0.145  step= 0.215 mean= 0.145
 gam= 0.689 g(H,U,f)=  0.139E-02 0.337E-02 0.234E-03 ort(H,U,f) =-0.443E-03 0.349E-03-0.395E-04
CGA:  67    -0.112736841891E+04   -0.76490E-03   -0.77018E-03  1320   0.499E-02-0.134E-03
 gam= 0.689 trial= 0.148  step= 0.123 mean= 0.148
 gam= 1.080 g(H,U,f)=  0.120E-02 0.387E-02 0.323E-03 ort(H,U,f) = 0.218E-03 0.231E-05-0.274E-03
CGA:  68    -0.112736872104E+04   -0.30213E-03   -0.30085E-03  1320   0.540E-02-0.537E-04
 gam= 1.080 trial= 0.147  step= 0.157 mean= 0.147
 gam= 0.668 g(H,U,f)=  0.114E-02 0.242E-02 0.398E-04 ort(H,U,f) =-0.870E-04 0.101E-03-0.989E-04
CGA:  69    -0.112736914024E+04   -0.41919E-03   -0.41966E-03  1320   0.361E-02-0.848E-04
 gam= 0.668 trial= 0.148  step= 0.412 mean= 0.148
 gam= 1.517 g(H,U,f)=  0.129E-02 0.398E-02 0.196E-03 ort(H,U,f) =-0.405E-03 0.196E-03-0.108E-03
CGA:  70    -0.112736983346E+04   -0.69323E-03   -0.73151E-03  1320   0.547E-02-0.317E-03
 gam= 1.517 trial= 0.161  step= 0.139 mean= 0.161
 gam= 0.792 g(H,U,f)=  0.102E-02 0.297E-02 0.342E-03 ort(H,U,f) =-0.490E-03 0.753E-03-0.395E-03
CGA:  71    -0.112737018210E+04   -0.34863E-03   -0.34619E-03  1320   0.433E-02-0.132E-03
 gam= 0.792 trial= 0.160  step= 0.117 mean= 0.160
 gam= 0.751 g(H,U,f)=  0.812E-03 0.235E-02 0.926E-04 ort(H,U,f) =-0.120E-03 0.187E-03-0.126E-03
CGA:  72    -0.112737043047E+04   -0.24838E-03   -0.24694E-03  1320   0.325E-02-0.593E-04
 gam= 0.751 trial= 0.158  step= 0.151 mean= 0.158
 gam= 0.918 g(H,U,f)=  0.744E-03 0.210E-02 0.141E-03 ort(H,U,f) =-0.279E-05-0.397E-04-0.173E-04
CGA:  73    -0.112737067357E+04   -0.24310E-03   -0.24289E-03  1320   0.299E-02-0.598E-04
 gam= 0.918 trial= 0.157  step= 0.250 mean= 0.157
 gam= 1.060 g(H,U,f)=  0.808E-03 0.216E-02 0.198E-03 ort(H,U,f) =-0.370E-03 0.277E-03 0.287E-04
CGA:  74    -0.112737103790E+04   -0.36432E-03   -0.36727E-03  1320   0.317E-02-0.636E-04
 gam= 1.060 trial= 0.162  step= 0.174 mean= 0.162
 gam= 1.238 g(H,U,f)=  0.833E-03 0.291E-02 0.178E-03 ort(H,U,f) =-0.365E-03 0.351E-03 0.508E-05
CGA:  75    -0.112737130733E+04   -0.26943E-03   -0.26945E-03  1320   0.392E-02-0.912E-05
 gam= 1.238 trial= 0.163  step= 0.121 mean= 0.163
 gam= 0.762 g(H,U,f)=  0.830E-03 0.197E-02 0.191E-03 ort(H,U,f) =-0.478E-03 0.278E-03 0.202E-03
CGA:  76    -0.112737154382E+04   -0.23649E-03   -0.23607E-03  1320   0.299E-02 0.278E-05
 gam= 0.762 trial= 0.160  step= 0.142 mean= 0.160
 gam= 0.704 g(H,U,f)=  0.749E-03 0.130E-02 0.569E-04 ort(H,U,f) =-0.234E-03 0.194E-03 0.780E-04
CGA:  77    -0.112737175576E+04   -0.21194E-03   -0.21245E-03  1320   0.210E-02 0.385E-04
 gam= 0.704 trial= 0.160  step= 0.202 mean= 0.160
 gam= 0.710 g(H,U,f)=  0.646E-03 0.799E-03 0.478E-04 ort(H,U,f) =-0.184E-04 0.532E-04 0.377E-04
CGA:  78    -0.112737197250E+04   -0.21675E-03   -0.21501E-03  1320   0.149E-02 0.726E-04
 gam= 0.710 trial= 0.162  step= 0.145 mean= 0.162
 gam= 1.430 g(H,U,f)=  0.529E-03 0.148E-02 0.124E-03 ort(H,U,f) = 0.301E-03-0.331E-03 0.680E-04
CGA:  79    -0.112737208438E+04   -0.11187E-03   -0.11218E-03  1320   0.213E-02 0.382E-04
 gam= 1.430 trial= 0.161  step= 0.142 mean= 0.161
 gam= 0.509 g(H,U,f)=  0.375E-03 0.677E-03 0.348E-04 ort(H,U,f) = 0.666E-04-0.445E-04 0.536E-04
CGA:  80    -0.112737223831E+04   -0.15393E-03   -0.15487E-03  1320   0.109E-02 0.757E-04
 gam= 0.509 trial= 0.160  step= 0.158 mean= 0.160
 gam= 0.832 g(H,U,f)=  0.284E-03 0.586E-03 0.359E-04 ort(H,U,f) = 0.578E-04-0.165E-04 0.603E-06
CGA:  81    -0.112737232732E+04   -0.89009E-04   -0.89046E-04  1320   0.905E-03 0.419E-04
 gam= 0.832 trial= 0.160  step= 0.164 mean= 0.160
 gam= 0.785 g(H,U,f)=  0.245E-03 0.441E-03 0.240E-04 ort(H,U,f) = 0.372E-04-0.545E-05 0.342E-05
CGA:  82    -0.112737240441E+04   -0.77089E-04   -0.77014E-04  1320   0.710E-03 0.352E-04
 gam= 0.785 trial= 0.160  step= 0.136 mean= 0.160
 gam= 1.231 g(H,U,f)=  0.238E-03 0.587E-03 0.498E-04 ort(H,U,f) = 0.113E-03-0.661E-04-0.286E-04
CGA:  83    -0.112737245422E+04   -0.49810E-04   -0.50061E-04  1320   0.875E-03 0.182E-04
 gam= 1.231 trial= 0.159  step= 0.163 mean= 0.159
 gam= 0.735 g(H,U,f)=  0.220E-03 0.414E-03 0.935E-05 ort(H,U,f) = 0.742E-04-0.560E-04 0.124E-06
CGA:  84    -0.112737252754E+04   -0.73324E-04   -0.73283E-04  1320   0.643E-03 0.183E-04
 gam= 0.735 trial= 0.159  step= 0.195 mean= 0.159
 gam= 0.000 g(H,U,f)=  0.182E-03 0.329E-03 0.940E-05 ort(H,U,f) = 0.632E-04-0.498E-04-0.748E-05
SDA:  85    -0.112737259164E+04   -0.64092E-04   -0.63975E-04  1320   0.521E-03 0.588E-05
 gam= 0.000 trial= 0.161  step= 0.129 mean= 0.161
 gam= 0.800 g(H,U,f)=  0.109E-03 0.289E-03 0.188E-04 ort(H,U,f) = 0.100E-03-0.104E-03-0.582E-05
CGA:  86    -0.112737262528E+04   -0.33643E-04   -0.33487E-04  1320   0.417E-03-0.965E-05
 gam= 0.800 trial= 0.159  step= 0.145 mean= 0.159
 gam= 1.055 g(H,U,f)=  0.890E-04 0.323E-03 0.277E-04 ort(H,U,f) = 0.784E-04-0.882E-04-0.738E-05
CGA:  87    -0.112737265509E+04   -0.29817E-04   -0.29697E-04  1320   0.440E-03-0.171E-04
 gam= 1.055 trial= 0.159  step= 0.141 mean= 0.159
 gam= 0.634 g(H,U,f)=  0.102E-03 0.168E-03 0.918E-05 ort(H,U,f) = 0.440E-04-0.667E-04-0.263E-06
CGA:  88    -0.112737268504E+04   -0.29944E-04   -0.29746E-04  1320   0.279E-03-0.229E-04
 gam= 0.634 trial= 0.158  step= 0.357 mean= 0.158
 gam= 1.211 g(H,U,f)=  0.125E-03 0.206E-03 0.648E-05 ort(H,U,f) =-0.183E-05-0.429E-04-0.129E-06
CGA:  89    -0.112737272774E+04   -0.42700E-04   -0.47127E-04  1320   0.337E-03-0.449E-04
 gam= 1.211 trial= 0.168  step= 0.293 mean= 0.168
 gam= 0.753 g(H,U,f)=  0.103E-03 0.147E-03 0.471E-05 ort(H,U,f) =-0.311E-04-0.268E-05-0.348E-05
CGA:  90    -0.112737276682E+04   -0.39085E-04   -0.41406E-04  1320   0.254E-03-0.373E-04
 gam= 0.753 trial= 0.174  step= 0.123 mean= 0.174
 gam= 0.841 g(H,U,f)=  0.799E-04 0.123E-03 0.104E-04 ort(H,U,f) = 0.320E-04-0.356E-04-0.329E-05
CGA:  91    -0.112737278092E+04   -0.14092E-04   -0.13920E-04  1320   0.214E-03-0.688E-05
 gam= 0.841 trial= 0.171  step= 0.124 mean= 0.171
 gam= 0.720 g(H,U,f)=  0.602E-04 0.850E-04 0.858E-05 ort(H,U,f) = 0.546E-04-0.466E-04-0.942E-05
CGA:  92    -0.112737279381E+04   -0.12894E-04   -0.12855E-04  1320   0.154E-03-0.147E-05
 gam= 0.720 trial= 0.169  step= 0.202 mean= 0.169
 gam= 0.660 g(H,U,f)=  0.399E-04 0.590E-04 0.258E-05 ort(H,U,f) = 0.314E-04-0.228E-04-0.313E-05
CGA:  93    -0.112737280931E+04   -0.15495E-04   -0.15404E-04  1320   0.102E-03 0.542E-05
 gam= 0.660 trial= 0.171  step= 0.218 mean= 0.171
 gam= 0.677 g(H,U,f)=  0.258E-04 0.411E-04 0.196E-05 ort(H,U,f) = 0.167E-04-0.362E-05-0.134E-05
CGA:  94    -0.112737282107E+04   -0.11766E-04   -0.11482E-04  1320   0.688E-04 0.118E-04
 gam= 0.677 trial= 0.173  step= 0.168 mean= 0.173
 gam= 0.644 g(H,U,f)=  0.157E-04 0.273E-04 0.135E-05 ort(H,U,f) = 0.113E-04 0.764E-06-0.392E-06
CGA:  95    -0.112737282751E+04   -0.64358E-05   -0.64630E-05  1320   0.443E-04 0.117E-04
 gam= 0.644 trial= 0.173  step= 0.158 mean= 0.173
 final diagonalization
   1 F= -.11273728E+04 E0= -.11273428E+04  d E =-.112737E+04  mag=    20.0000
quench:  g(F)=  0.000E+00 g(S)=  0.000E+00 dE (1.order)= 0.000E+00
 bond charge predicted
 wavefunctions rotated
       N       E                     dE             d eps       ncg     rms          ort
 gam= 0.000 g(H,U,f)=  0.161E-01 0.150E-01 0.160E-02 ort(H,U,f) = 0.000E+00 0.000E+00 0.000E+00
SDA:   1    -0.112738503864E+04   -0.12218E-01    0.00000E+00  1320   0.327E-01 0.000E+00
 gam= 0.000 trial= 0.172  step= 0.078 mean= 0.172
 gam= 0.578 g(H,U,f)=  0.940E-02 0.853E-02 0.989E-03 ort(H,U,f) = 0.102E-01-0.894E-02-0.123E-02
CGA:   2    -0.112738632089E+04   -0.12822E-02   -0.12773E-02  1320   0.189E-01 0.562E-04
 gam= 0.578 trial= 0.167  step= 0.160 mean= 0.167
 gam= 0.520 g(H,U,f)=  0.465E-02 0.495E-02 0.230E-03 ort(H,U,f) = 0.346E-02-0.333E-02-0.151E-03
CGA:   3    -0.112738783613E+04   -0.15152E-02   -0.15152E-02  1320   0.983E-02-0.243E-04
 gam= 0.520 trial= 0.167  step= 0.149 mean= 0.167
 gam= 0.614 g(H,U,f)=  0.325E-02 0.261E-02 0.177E-03 ort(H,U,f) = 0.209E-02-0.198E-02-0.134E-03
CGA:   4    -0.112738856584E+04   -0.72971E-03   -0.72943E-03  1320   0.603E-02-0.269E-04
 gam= 0.614 trial= 0.166  step= 0.188 mean= 0.166
 gam= 0.732 g(H,U,f)=  0.166E-02 0.264E-02 0.115E-03 ort(H,U,f) = 0.144E-02-0.138E-02-0.743E-04
CGA:   5    -0.112738913191E+04   -0.56607E-03   -0.56620E-03  1320   0.442E-02-0.129E-04
 gam= 0.732 trial= 0.167  step= 0.130 mean= 0.167
 gam= 0.350 g(H,U,f)=  0.544E-03 0.944E-03 0.558E-04 ort(H,U,f) = 0.593E-03-0.566E-03-0.305E-04
CGA:   6    -0.112738941788E+04   -0.28597E-03   -0.28590E-03  1320   0.154E-02-0.371E-05
 gam= 0.350 trial= 0.165  step= 0.086 mean= 0.165
 gam= 0.474 g(H,U,f)=  0.297E-03 0.398E-03 0.367E-04 ort(H,U,f) = 0.356E-03-0.322E-03-0.345E-04
CGA:   7    -0.112738948392E+04   -0.66044E-04   -0.66041E-04  1320   0.732E-03-0.851E-06
 gam= 0.474 trial= 0.161  step= 0.140 mean= 0.161
 gam= 0.474 g(H,U,f)=  0.134E-03 0.193E-03 0.191E-04 ort(H,U,f) = 0.151E-03-0.137E-03-0.148E-04
CGA:   8    -0.112738953508E+04   -0.51160E-04   -0.51145E-04  1320   0.347E-03-0.104E-05
 gam= 0.474 trial= 0.160  step= 0.167 mean= 0.160
 gam= 0.442 g(H,U,f)=  0.591E-04 0.836E-04 0.105E-04 ort(H,U,f) = 0.554E-04-0.485E-04-0.867E-05
CGA:   9    -0.112738956407E+04   -0.28990E-04   -0.28996E-04  1320   0.153E-03-0.180E-05
 gam= 0.442 trial= 0.161  step= 0.139 mean= 0.161
 gam= 0.553 g(H,U,f)=  0.303E-04 0.486E-04 0.581E-05 ort(H,U,f) = 0.282E-04-0.255E-04-0.449E-05
CGA:  10    -0.112738957472E+04   -0.10649E-04   -0.10630E-04  1320   0.847E-04-0.180E-05
 gam= 0.553 trial= 0.159  step= 0.104 mean= 0.159
 gam= 0.727 g(H,U,f)=  0.202E-04 0.392E-04 0.217E-05 ort(H,U,f) = 0.239E-04-0.231E-04-0.198E-05
CGA:  11    -0.112738957911E+04   -0.43895E-05   -0.43566E-05  1320   0.616E-04-0.121E-05
 gam= 0.727 trial= 0.157  step= 0.164 mean= 0.157
 final diagonalization
   2 F= -.11273896E+04 E0= -.11273596E+04  d E =-.167516E-01  mag=    20.0000
quench:  g(F)=  0.000E+00 g(S)=  0.000E+00 dE (1.order)= 0.000E+00
 bond charge predicted
 wavefunctions rotated
       N       E                     dE             d eps       ncg     rms          ort
 gam= 0.000 g(H,U,f)=  0.336E+02 0.132E+01 0.199E-01 ort(H,U,f) = 0.000E+00 0.000E+00 0.000E+00
SDA:   1    -0.111860320790E+04    0.87864E+01    0.00000E+00  1320   0.349E+02 0.000E+00
 gam= 0.000 trial= 0.157  step= 0.305 mean= 0.157
 gam= 0.486 g(H,U,f)=  0.115E+02 0.525E+01 0.229E+00 ort(H,U,f) = 0.182E+01-0.185E+01-0.596E-01
CGA:   2    -0.112392660983E+04   -0.53234E+01   -0.53309E+01  1320   0.170E+02-0.900E-01
 gam= 0.486 trial= 0.165  step= 0.178 mean= 0.165
 gam= 1.215 g(H,U,f)=  0.826E+01 0.113E+02 0.102E+01 ort(H,U,f) = 0.615E+01-0.569E+01-0.400E+00
CGA:   3    -0.112543679948E+04   -0.15102E+01   -0.15096E+01  1320   0.206E+02 0.581E-01
 gam= 1.215 trial= 0.165  step= 0.148 mean= 0.165
 gam= 0.612 g(H,U,f)=  0.339E+01 0.894E+01 0.300E+00 ort(H,U,f) = 0.408E+01-0.357E+01-0.163E+00
CGA:   4    -0.112696443294E+04   -0.15276E+01   -0.15352E+01  1320   0.126E+02 0.346E+00
 gam= 0.612 trial= 0.164  step= 0.083 mean= 0.164
 gam= 0.195 g(H,U,f)=  0.147E+01 0.959E+00 0.424E-01 ort(H,U,f) = 0.171E+01-0.135E+01-0.719E-01
CGA:   5    -0.112752287396E+04   -0.55844E+00   -0.53247E+00  1320   0.247E+01 0.289E+00
 gam= 0.195 trial= 0.160  step= 0.179 mean= 0.160
 gam= 0.710 g(H,U,f)=  0.649E+00 0.106E+01 0.387E-01 ort(H,U,f) = 0.652E+00-0.621E+00-0.254E-01
CGA:   6    -0.112774817164E+04   -0.22530E+00   -0.22523E+00  1320   0.175E+01 0.498E-02
 gam= 0.710 trial= 0.161  step= 0.148 mean= 0.161
 gam= 0.382 g(H,U,f)=  0.264E+00 0.396E+00 0.837E-02 ort(H,U,f) = 0.225E+00-0.209E+00-0.103E-01
CGA:   7    -0.112787771277E+04   -0.12954E+00   -0.12964E+00  1320   0.669E+00 0.577E-02
 gam= 0.382 trial= 0.161  step= 0.149 mean= 0.161
 gam= 0.278 g(H,U,f)=  0.114E+00 0.690E-01 0.319E-02 ort(H,U,f) = 0.934E-01-0.907E-01-0.269E-02
CGA:   8    -0.112792780405E+04   -0.50091E-01   -0.50091E-01  1320   0.186E+00-0.218E-04
 gam= 0.278 trial= 0.160  step= 0.229 mean= 0.160
 gam= 1.139 g(H,U,f)=  0.509E-01 0.147E+00 0.137E-01 ort(H,U,f) = 0.465E-01-0.414E-01-0.461E-02
CGA:   9    -0.112794915290E+04   -0.21349E-01   -0.21324E-01  1320   0.212E+00 0.529E-03
 gam= 1.139 trial= 0.163  step= 0.093 mean= 0.163
 gam= 0.412 g(H,U,f)=  0.322E-01 0.522E-01 0.294E-02 ort(H,U,f) = 0.321E-01-0.281E-01-0.375E-02
CGA:  10    -0.112795903582E+04   -0.98829E-02   -0.98481E-02  1320   0.873E-01 0.191E-03
 gam= 0.412 trial= 0.160  step= 0.141 mean= 0.160
 gam= 0.504 g(H,U,f)=  0.210E-01 0.223E-01 0.684E-03 ort(H,U,f) = 0.149E-01-0.143E-01-0.668E-03
CGA:  11    -0.112796520704E+04   -0.61712E-02   -0.61692E-02  1320   0.440E-01-0.862E-04
 gam= 0.504 trial= 0.159  step= 0.245 mean= 0.159
 gam= 0.686 g(H,U,f)=  0.133E-01 0.166E-01 0.251E-03 ort(H,U,f) = 0.677E-02-0.645E-02-0.212E-03
CGA:  12    -0.112797058814E+04   -0.53811E-02   -0.53753E-02  1320   0.302E-01 0.114E-03
 gam= 0.686 trial= 0.163  step= 0.233 mean= 0.163
 gam= 0.562 g(H,U,f)=  0.811E-02 0.866E-02 0.178E-03 ort(H,U,f) = 0.294E-02-0.282E-02-0.675E-04
CGA:  13    -0.112797410934E+04   -0.35212E-02   -0.35191E-02  1320   0.170E-01 0.500E-04
 gam= 0.562 trial= 0.167  step= 0.180 mean= 0.167
 gam= 0.952 g(H,U,f)=  0.582E-02 0.957E-02 0.756E-03 ort(H,U,f) = 0.359E-02-0.329E-02-0.255E-03
CGA:  14    -0.112797563782E+04   -0.15285E-02   -0.15281E-02  1320   0.161E-01 0.416E-04
 gam= 0.952 trial= 0.167  step= 0.134 mean= 0.167
 gam= 0.985 g(H,U,f)=  0.467E-02 0.105E-01 0.760E-03 ort(H,U,f) = 0.421E-02-0.370E-02-0.485E-03
CGA:  15    -0.112797672355E+04   -0.10857E-02   -0.10866E-02  1320   0.159E-01 0.242E-04
 gam= 0.985 trial= 0.166  step= 0.156 mean= 0.166
 gam= 0.408 g(H,U,f)=  0.335E-02 0.300E-02 0.139E-03 ort(H,U,f) = 0.206E-02-0.191E-02-0.118E-03
CGA:  16    -0.112797796480E+04   -0.12412E-02   -0.12414E-02  1320   0.649E-02 0.339E-04
 gam= 0.408 trial= 0.165  step= 0.210 mean= 0.165
 gam= 0.993 g(H,U,f)=  0.231E-02 0.394E-02 0.200E-03 ort(H,U,f) = 0.161E-02-0.147E-02-0.101E-03
CGA:  17    -0.112797864754E+04   -0.68274E-03   -0.68184E-03  1320   0.645E-02 0.384E-04
 gam= 0.993 trial= 0.167  step= 0.165 mean= 0.167
 gam= 0.536 g(H,U,f)=  0.147E-02 0.189E-02 0.962E-04 ort(H,U,f) = 0.148E-02-0.138E-02-0.628E-04
CGA:  18    -0.112797918304E+04   -0.53550E-03   -0.53554E-03  1320   0.346E-02 0.358E-04
 gam= 0.536 trial= 0.167  step= 0.204 mean= 0.167
 gam= 0.645 g(H,U,f)=  0.853E-03 0.126E-02 0.122E-03 ort(H,U,f) = 0.796E-03-0.708E-03-0.666E-04
CGA:  19    -0.112797953795E+04   -0.35491E-03   -0.35451E-03  1320   0.223E-02 0.211E-04
 gam= 0.645 trial= 0.169  step= 0.134 mean= 0.169
 gam= 0.971 g(H,U,f)=  0.619E-03 0.146E-02 0.886E-04 ort(H,U,f) = 0.722E-03-0.652E-03-0.655E-04
CGA:  20    -0.112797968880E+04   -0.15085E-03   -0.15091E-03  1320   0.217E-02 0.417E-05
 gam= 0.971 trial= 0.167  step= 0.142 mean= 0.167
 gam= 0.562 g(H,U,f)=  0.430E-03 0.766E-03 0.221E-04 ort(H,U,f) = 0.462E-03-0.446E-03-0.161E-04
CGA:  21    -0.112797984285E+04   -0.15405E-03   -0.15404E-03  1320   0.122E-02-0.612E-06
 gam= 0.562 trial= 0.166  step= 0.169 mean= 0.166
 gam= 0.598 g(H,U,f)=  0.338E-03 0.375E-03 0.156E-04 ort(H,U,f) = 0.241E-03-0.236E-03-0.104E-04
CGA:  22    -0.112797994584E+04   -0.10299E-03   -0.10300E-03  1320   0.728E-03-0.509E-05
 gam= 0.598 trial= 0.166  step= 0.306 mean= 0.166
 gam= 0.793 g(H,U,f)=  0.247E-03 0.316E-03 0.144E-04 ort(H,U,f) = 0.107E-03-0.107E-03-0.853E-05
CGA:  23    -0.112798005600E+04   -0.11016E-03   -0.11080E-03  1320   0.577E-03-0.921E-05
 gam= 0.793 trial= 0.173  step= 0.198 mean= 0.173
 gam= 1.071 g(H,U,f)=  0.181E-03 0.409E-03 0.286E-04 ort(H,U,f) = 0.115E-03-0.105E-03-0.108E-04
CGA:  24    -0.112798011233E+04   -0.56325E-04   -0.56336E-04  1320   0.618E-03-0.813E-06
 gam= 1.071 trial= 0.174  step= 0.106 mean= 0.174
 gam= 0.557 g(H,U,f)=  0.145E-03 0.188E-03 0.114E-04 ort(H,U,f) = 0.134E-03-0.123E-03-0.998E-05
CGA:  25    -0.112798014495E+04   -0.32616E-04   -0.32663E-04  1320   0.344E-03 0.130E-05
 gam= 0.557 trial= 0.171  step= 0.200 mean= 0.171
 gam= 0.933 g(H,U,f)=  0.960E-04 0.214E-03 0.105E-04 ort(H,U,f) = 0.806E-04-0.715E-04-0.498E-05
CGA:  26    -0.112798017950E+04   -0.34556E-04   -0.34496E-04  1320   0.321E-03 0.405E-05
 gam= 0.933 trial= 0.173  step= 0.143 mean= 0.173
 gam= 0.444 g(H,U,f)=  0.646E-04 0.748E-04 0.321E-05 ort(H,U,f) = 0.558E-04-0.505E-04-0.351E-05
CGA:  27    -0.112798020271E+04   -0.23208E-04   -0.23234E-04  1320   0.143E-03 0.178E-05
 gam= 0.444 trial= 0.171  step= 0.227 mean= 0.171
 gam= 0.762 g(H,U,f)=  0.431E-04 0.625E-04 0.300E-05 ort(H,U,f) = 0.351E-04-0.351E-04-0.151E-05
CGA:  28    -0.112798021891E+04   -0.16203E-04   -0.16247E-04  1320   0.109E-03-0.159E-05
 gam= 0.762 trial= 0.174  step= 0.203 mean= 0.174
 gam= 1.030 g(H,U,f)=  0.294E-04 0.755E-04 0.692E-05 ort(H,U,f) = 0.277E-04-0.291E-04-0.259E-05
CGA:  29    -0.112798022973E+04   -0.10821E-04   -0.10878E-04  1320   0.112E-03-0.397E-05
 gam= 1.030 trial= 0.175  step= 0.114 mean= 0.175
 gam= 0.628 g(H,U,f)=  0.230E-04 0.447E-04 0.257E-05 ort(H,U,f) = 0.265E-04-0.267E-04-0.228E-05
CGA:  30    -0.112798023594E+04   -0.62006E-05   -0.61257E-05  1320   0.703E-04-0.241E-05
 gam= 0.628 trial= 0.172  step= 0.149 mean= 0.172
 final diagonalization
   3 F= -.11279802E+04 E0= -.11279517E+04  d E =-.590657E+00  mag=    20.0000
quench:  g(F)=  0.000E+00 g(S)=  0.000E+00 dE (1.order)= 0.000E+00
 bond charge predicted
 wavefunctions rotated
       N       E                     dE             d eps       ncg     rms          ort
 gam= 0.000 g(H,U,f)=  0.708E+02 0.410E+01 0.896E-01 ort(H,U,f) = 0.000E+00 0.000E+00 0.000E+00
SDA:   1    -0.110647219949E+04    0.21508E+02    0.00000E+00  1320   0.750E+02 0.000E+00
 gam= 0.000 trial= 0.171  step= 0.306 mean= 0.171
 gam= 0.894 g(H,U,f)=  0.270E+02 0.375E+02 0.252E+01 ort(H,U,f) = 0.117E+02-0.100E+02-0.564E+00
CGA:   2    -0.111800476044E+04   -0.11533E+02   -0.11474E+02  1320   0.671E+02 0.108E+01
 gam= 0.894 trial= 0.178  step= 0.106 mean= 0.178
 gam= 0.618 g(H,U,f)=  0.209E+02 0.180E+02 0.250E+01 ort(H,U,f) = 0.163E+02-0.153E+02-0.217E+01
CGA:   3    -0.112174199931E+04   -0.37372E+01   -0.35918E+01  1320   0.415E+02-0.123E+01
 gam= 0.618 trial= 0.174  step= 0.166 mean= 0.174
 gam= 0.713 g(H,U,f)=  0.118E+02 0.172E+02 0.529E+00 ort(H,U,f) = 0.118E+02-0.102E+02-0.333E+00
CGA:   4    -0.112510699427E+04   -0.33650E+01   -0.33765E+01  1320   0.296E+02 0.128E+01
 gam= 0.713 trial= 0.174  step= 0.144 mean= 0.174
 gam= 0.233 g(H,U,f)=  0.359E+01 0.322E+01 0.686E-01 ort(H,U,f) = 0.313E+01-0.338E+01-0.749E-01
CGA:   5    -0.112731726257E+04   -0.22103E+01   -0.21908E+01  1320   0.688E+01-0.325E+00
 gam= 0.233 trial= 0.172  step= 0.147 mean= 0.172
 gam= 0.690 g(H,U,f)=  0.174E+01 0.281E+01 0.191E+00 ort(H,U,f) = 0.177E+01-0.165E+01-0.111E+00
CGA:   6    -0.112781522723E+04   -0.49796E+00   -0.49855E+00  1320   0.475E+01 0.515E-02
 gam= 0.690 trial= 0.171  step= 0.119 mean= 0.171
 gam= 0.596 g(H,U,f)=  0.839E+00 0.191E+01 0.809E-01 ort(H,U,f) = 0.112E+01-0.106E+01-0.608E-01
CGA:   7    -0.112809610886E+04   -0.28088E+00   -0.28291E+00  1320   0.283E+01 0.597E-02
 gam= 0.596 trial= 0.168  step= 0.119 mean= 0.168
 gam= 0.338 g(H,U,f)=  0.354E+00 0.583E+00 0.191E-01 ort(H,U,f) = 0.393E+00-0.372E+00-0.204E-01
CGA:   8    -0.112826409860E+04   -0.16799E+00   -0.16793E+00  1320   0.955E+00-0.241E-04
 gam= 0.338 trial= 0.166  step= 0.129 mean= 0.166
 gam= 0.384 g(H,U,f)=  0.178E+00 0.181E+00 0.845E-02 ort(H,U,f) = 0.186E+00-0.179E+00-0.618E-02
CGA:   9    -0.112832579972E+04   -0.61701E-01   -0.61779E-01  1320   0.367E+00 0.744E-03
 gam= 0.384 trial= 0.164  step= 0.213 mean= 0.164
 gam= 0.816 g(H,U,f)=  0.888E-01 0.197E+00 0.140E-01 ort(H,U,f) = 0.780E-01-0.676E-01-0.642E-02
CGA:  10    -0.112836498710E+04   -0.39187E-01   -0.39053E-01  1320   0.300E+00 0.401E-02
 gam= 0.816 trial= 0.166  step= 0.121 mean= 0.166
 gam= 0.623 g(H,U,f)=  0.571E-01 0.122E+00 0.746E-02 ort(H,U,f) = 0.513E-01-0.459E-01-0.541E-02
CGA:  11    -0.112838334340E+04   -0.18356E-01   -0.18348E-01  1320   0.187E+00-0.428E-04
 gam= 0.623 trial= 0.164  step= 0.120 mean= 0.164
 gam= 0.517 g(H,U,f)=  0.419E-01 0.527E-01 0.192E-02 ort(H,U,f) = 0.333E-01-0.318E-01-0.158E-02
CGA:  12    -0.112839452427E+04   -0.11181E-01   -0.11173E-01  1320   0.966E-01-0.833E-04
 gam= 0.517 trial= 0.162  step= 0.228 mean= 0.162
 gam= 0.679 g(H,U,f)=  0.270E-01 0.371E-01 0.145E-02 ort(H,U,f) = 0.144E-01-0.128E-01-0.929E-03
CGA:  13    -0.112840555502E+04   -0.11031E-01   -0.11001E-01  1320   0.656E-01 0.695E-03
 gam= 0.679 trial= 0.165  step= 0.210 mean= 0.165
 gam= 0.739 g(H,U,f)=  0.178E-01 0.286E-01 0.209E-02 ort(H,U,f) = 0.826E-02-0.713E-02-0.935E-03
CGA:  14    -0.112841250047E+04   -0.69455E-02   -0.69394E-02  1320   0.485E-01 0.194E-03
 gam= 0.739 trial= 0.167  step= 0.118 mean= 0.167
 gam= 0.818 g(H,U,f)=  0.144E-01 0.243E-01 0.982E-03 ort(H,U,f) = 0.118E-01-0.110E-01-0.738E-03
CGA:  15    -0.112841535761E+04   -0.28571E-02   -0.28625E-02  1320   0.397E-01 0.267E-04
 gam= 0.818 trial= 0.165  step= 0.183 mean= 0.165
 gam= 0.703 g(H,U,f)=  0.109E-01 0.165E-01 0.452E-03 ort(H,U,f) = 0.766E-02-0.723E-02-0.318E-03
CGA:  16    -0.112841900098E+04   -0.36434E-02   -0.36419E-02  1320   0.279E-01 0.109E-03
 gam= 0.703 trial= 0.166  step= 0.199 mean= 0.166
 gam= 0.609 g(H,U,f)=  0.739E-02 0.922E-02 0.377E-03 ort(H,U,f) = 0.550E-02-0.518E-02-0.225E-03
CGA:  17    -0.112842178355E+04   -0.27826E-02   -0.27806E-02  1320   0.170E-01 0.924E-04
 gam= 0.609 trial= 0.168  step= 0.170 mean= 0.168
 gam= 0.760 g(H,U,f)=  0.509E-02 0.748E-02 0.343E-03 ort(H,U,f) = 0.442E-02-0.419E-02-0.194E-03
CGA:  18    -0.112842323329E+04   -0.14497E-02   -0.14497E-02  1320   0.129E-01 0.300E-04
 gam= 0.760 trial= 0.168  step= 0.185 mean= 0.168
 gam= 0.945 g(H,U,f)=  0.318E-02 0.860E-02 0.431E-03 ort(H,U,f) = 0.347E-02-0.327E-02-0.158E-03
CGA:  19    -0.112842442898E+04   -0.11957E-02   -0.11953E-02  1320   0.122E-01 0.331E-04
 gam= 0.945 trial= 0.169  step= 0.112 mean= 0.169
 gam= 0.469 g(H,U,f)=  0.201E-02 0.354E-02 0.179E-03 ort(H,U,f) = 0.300E-02-0.280E-02-0.200E-03
CGA:  20    -0.112842511517E+04   -0.68619E-03   -0.68677E-03  1320   0.572E-02 0.674E-05
 gam= 0.469 trial= 0.166  step= 0.167 mean= 0.166
 gam= 0.526 g(H,U,f)=  0.128E-02 0.168E-02 0.455E-04 ort(H,U,f) = 0.142E-02-0.138E-02-0.406E-04
CGA:  21    -0.112842559256E+04   -0.47738E-03   -0.47738E-03  1320   0.301E-02 0.175E-05
 gam= 0.526 trial= 0.166  step= 0.291 mean= 0.166
 gam= 0.794 g(H,U,f)=  0.914E-03 0.144E-02 0.362E-04 ort(H,U,f) = 0.534E-03-0.518E-03-0.192E-04
CGA:  22    -0.112842603057E+04   -0.43802E-03   -0.43824E-03  1320   0.239E-02-0.341E-05
 gam= 0.794 trial= 0.172  step= 0.205 mean= 0.172
 gam= 0.957 g(H,U,f)=  0.700E-03 0.151E-02 0.780E-04 ort(H,U,f) = 0.446E-03-0.426E-03-0.296E-04
CGA:  23    -0.112842627561E+04   -0.24503E-03   -0.24520E-03  1320   0.229E-02-0.960E-05
 gam= 0.957 trial= 0.174  step= 0.120 mean= 0.174
 gam= 0.741 g(H,U,f)=  0.586E-03 0.105E-02 0.596E-04 ort(H,U,f) = 0.545E-03-0.512E-03-0.380E-04
CGA:  24    -0.112842641256E+04   -0.13695E-03   -0.13680E-03  1320   0.169E-02-0.449E-05
 gam= 0.741 trial= 0.171  step= 0.202 mean= 0.171
 gam= 0.715 g(H,U,f)=  0.428E-03 0.745E-03 0.374E-04 ort(H,U,f) = 0.275E-03-0.255E-03-0.256E-04
CGA:  25    -0.112842658318E+04   -0.17062E-03   -0.17072E-03  1320   0.121E-02-0.617E-05
 gam= 0.715 trial= 0.173  step= 0.168 mean= 0.173
 gam= 0.618 g(H,U,f)=  0.311E-03 0.421E-03 0.154E-04 ort(H,U,f) = 0.203E-03-0.195E-03-0.103E-04
CGA:  26    -0.112842668451E+04   -0.10133E-03   -0.10132E-03  1320   0.748E-03-0.296E-05
 gam= 0.618 trial= 0.172  step= 0.208 mean= 0.172
 gam= 0.710 g(H,U,f)=  0.201E-03 0.310E-03 0.200E-04 ort(H,U,f) = 0.142E-03-0.133E-03-0.100E-04
CGA:  27    -0.112842676203E+04   -0.77519E-04   -0.77539E-04  1320   0.531E-03-0.111E-05
 gam= 0.710 trial= 0.174  step= 0.182 mean= 0.174
 gam= 0.938 g(H,U,f)=  0.138E-03 0.339E-03 0.209E-04 ort(H,U,f) = 0.122E-03-0.111E-03-0.124E-04
CGA:  28    -0.112842681024E+04   -0.48207E-04   -0.48213E-04  1320   0.498E-03-0.152E-05
 gam= 0.938 trial= 0.175  step= 0.114 mean= 0.175
 gam= 0.559 g(H,U,f)=  0.104E-03 0.169E-03 0.523E-05 ort(H,U,f) = 0.121E-03-0.118E-03-0.455E-05
CGA:  29    -0.112842683865E+04   -0.28412E-04   -0.28365E-04  1320   0.279E-03-0.147E-05
 gam= 0.559 trial= 0.172  step= 0.198 mean= 0.172
 gam= 0.623 g(H,U,f)=  0.697E-04 0.101E-03 0.314E-05 ort(H,U,f) = 0.620E-04-0.642E-04-0.200E-05
CGA:  30    -0.112842686603E+04   -0.27384E-04   -0.27438E-04  1320   0.174E-03-0.422E-05
 gam= 0.623 trial= 0.173  step= 0.255 mean= 0.173
 gam= 0.678 g(H,U,f)=  0.482E-04 0.659E-04 0.360E-05 ort(H,U,f) = 0.322E-04-0.345E-04-0.199E-05
CGA:  31    -0.112842688765E+04   -0.21620E-04   -0.21793E-04  1320   0.118E-03-0.427E-05
 gam= 0.678 trial= 0.177  step= 0.202 mean= 0.177
 gam= 0.000 g(H,U,f)=  0.378E-04 0.676E-04 0.474E-05 ort(H,U,f) = 0.292E-04-0.275E-04-0.241E-05
SDA:  32    -0.112842689926E+04   -0.11610E-04   -0.11618E-04  1320   0.110E-03-0.615E-06
 gam= 0.000 trial= 0.178  step= 0.082 mean= 0.178
 gam= 0.442 g(H,U,f)=  0.271E-04 0.205E-04 0.105E-05 ort(H,U,f) = 0.252E-04-0.228E-04-0.197E-05
CGA:  33    -0.112842690377E+04   -0.45109E-05   -0.45359E-05  1320   0.486E-04 0.456E-06
 gam= 0.442 trial= 0.173  step= 0.262 mean= 0.173
 final diagonalization
   4 F= -.11284269E+04 E0= -.11283997E+04  d E =-.446668E+00  mag=    20.0000
quench:  g(F)=  0.000E+00 g(S)=  0.000E+00 dE (1.order)= 0.000E+00
 bond charge predicted
 wavefunctions rotated
       N       E                     dE             d eps       ncg     rms          ort
 gam= 0.000 g(H,U,f)=  0.510E+02 0.373E+01 0.657E-01 ort(H,U,f) = 0.000E+00 0.000E+00 0.000E+00
SDA:   1    -0.111348659955E+04    0.14940E+02    0.00000E+00  1320   0.548E+02 0.000E+00
 gam= 0.000 trial= 0.178  step= 0.292 mean= 0.178
 gam= 0.770 g(H,U,f)=  0.179E+02 0.239E+02 0.427E+00 ort(H,U,f) = 0.858E+01-0.832E+01-0.121E+00
CGA:   2    -0.112150048197E+04   -0.80139E+01   -0.80082E+01  1320   0.422E+02 0.140E+00
 gam= 0.770 trial= 0.184  step= 0.142 mean= 0.184
 gam= 0.574 g(H,U,f)=  0.139E+02 0.980E+01 0.576E+00 ort(H,U,f) = 0.824E+01-0.801E+01-0.429E+00
CGA:   3    -0.112448668921E+04   -0.29862E+01   -0.30109E+01  1320   0.242E+02-0.196E+00
 gam= 0.574 trial= 0.182  step= 0.171 mean= 0.182
 gam= 0.890 g(H,U,f)=  0.706E+01 0.142E+02 0.313E+00 ort(H,U,f) = 0.729E+01-0.704E+01-0.155E+00
CGA:   4    -0.112655012904E+04   -0.20634E+01   -0.20646E+01  1320   0.216E+02 0.930E-01
 gam= 0.890 trial= 0.181  step= 0.118 mean= 0.181
 gam= 0.249 g(H,U,f)=  0.259E+01 0.266E+01 0.129E+00 ort(H,U,f) = 0.289E+01-0.264E+01-0.163E+00
CGA:   5    -0.112785124895E+04   -0.13011E+01   -0.12746E+01  1320   0.538E+01 0.911E-01
 gam= 0.249 trial= 0.178  step= 0.139 mean= 0.178
 gam= 0.450 g(H,U,f)=  0.123E+01 0.115E+01 0.404E-01 ort(H,U,f) = 0.122E+01-0.118E+01-0.498E-01
CGA:   6    -0.112822831143E+04   -0.37706E+00   -0.37603E+00  1320   0.242E+01-0.141E-01
 gam= 0.450 trial= 0.176  step= 0.208 mean= 0.176
 gam= 0.470 g(H,U,f)=  0.425E+00 0.690E+00 0.226E-01 ort(H,U,f) = 0.358E+00-0.340E+00-0.130E-01
CGA:   7    -0.112847928545E+04   -0.25097E+00   -0.25086E+00  1320   0.114E+01 0.528E-02
 gam= 0.470 trial= 0.177  step= 0.142 mean= 0.177
 gam= 0.442 g(H,U,f)=  0.179E+00 0.313E+00 0.117E-01 ort(H,U,f) = 0.171E+00-0.165E+00-0.775E-02
CGA:   8    -0.112856063443E+04   -0.81349E-01   -0.81210E-01  1320   0.503E+00-0.212E-02
 gam= 0.442 trial= 0.176  step= 0.103 mean= 0.176
 gam= 0.487 g(H,U,f)=  0.103E+00 0.136E+00 0.633E-02 ort(H,U,f) = 0.121E+00-0.115E+00-0.580E-02
CGA:   9    -0.112858655060E+04   -0.25916E-01   -0.25870E-01  1320   0.245E+00 0.288E-03
 gam= 0.487 trial= 0.172  step= 0.199 mean= 0.172
 gam= 0.581 g(H,U,f)=  0.534E-01 0.849E-01 0.425E-02 ort(H,U,f) = 0.437E-01-0.392E-01-0.285E-02
CGA:  10    -0.112861101601E+04   -0.24465E-01   -0.24432E-01  1320   0.143E+00 0.159E-02
 gam= 0.581 trial= 0.173  step= 0.183 mean= 0.173
 gam= 0.502 g(H,U,f)=  0.321E-01 0.370E-01 0.245E-02 ort(H,U,f) = 0.174E-01-0.157E-01-0.173E-02
CGA:  11    -0.112862411941E+04   -0.13103E-01   -0.13104E-01  1320   0.716E-01-0.620E-04
 gam= 0.502 trial= 0.174  step= 0.194 mean= 0.174
 gam= 0.809 g(H,U,f)=  0.218E-01 0.342E-01 0.191E-02 ort(H,U,f) = 0.141E-01-0.128E-01-0.129E-02
CGA:  12    -0.112863105062E+04   -0.69312E-02   -0.69304E-02  1320   0.579E-01 0.469E-04
 gam= 0.809 trial= 0.175  step= 0.163 mean= 0.175
 gam= 0.930 g(H,U,f)=  0.158E-01 0.368E-01 0.130E-02 ort(H,U,f) = 0.123E-01-0.116E-01-0.630E-03
CGA:  13    -0.112863578180E+04   -0.47312E-02   -0.47319E-02  1320   0.539E-01 0.566E-04
 gam= 0.930 trial= 0.174  step= 0.139 mean= 0.174
 gam= 0.476 g(H,U,f)=  0.114E-01 0.138E-01 0.451E-03 ort(H,U,f) = 0.700E-02-0.651E-02-0.416E-03
CGA:  14    -0.112863951430E+04   -0.37325E-02   -0.37376E-02  1320   0.257E-01 0.738E-04
 gam= 0.476 trial= 0.173  step= 0.194 mean= 0.173
 gam= 0.775 g(H,U,f)=  0.883E-02 0.106E-01 0.475E-03 ort(H,U,f) = 0.536E-02-0.508E-02-0.233E-03
CGA:  15    -0.112864200673E+04   -0.24924E-02   -0.24917E-02  1320   0.199E-01 0.449E-04
 gam= 0.775 trial= 0.174  step= 0.242 mean= 0.174
 gam= 0.800 g(H,U,f)=  0.656E-02 0.877E-02 0.573E-03 ort(H,U,f) = 0.429E-02-0.394E-02-0.314E-03
CGA:  16    -0.112864442231E+04   -0.24156E-02   -0.24141E-02  1320   0.159E-01 0.377E-04
 gam= 0.800 trial= 0.177  step= 0.186 mean= 0.177
 gam= 0.760 g(H,U,f)=  0.420E-02 0.738E-02 0.503E-03 ort(H,U,f) = 0.366E-02-0.336E-02-0.286E-03
CGA:  17    -0.112864590788E+04   -0.14856E-02   -0.14855E-02  1320   0.121E-01 0.139E-04
 gam= 0.760 trial= 0.178  step= 0.122 mean= 0.178
 gam= 0.634 g(H,U,f)=  0.305E-02 0.451E-02 0.106E-03 ort(H,U,f) = 0.355E-02-0.343E-02-0.118E-03
CGA:  18    -0.112864664604E+04   -0.73816E-03   -0.73857E-03  1320   0.767E-02 0.587E-05
 gam= 0.634 trial= 0.175  step= 0.204 mean= 0.175
 gam= 0.603 g(H,U,f)=  0.175E-02 0.283E-02 0.516E-04 ort(H,U,f) = 0.189E-02-0.184E-02-0.355E-04
CGA:  19    -0.112864742838E+04   -0.78234E-03   -0.78206E-03  1320   0.463E-02 0.147E-04
 gam= 0.603 trial= 0.176  step= 0.199 mean= 0.176
 gam= 0.530 g(H,U,f)=  0.102E-02 0.138E-02 0.521E-04 ort(H,U,f) = 0.927E-03-0.906E-03-0.203E-04
CGA:  20    -0.112864788953E+04   -0.46115E-03   -0.46115E-03  1320   0.245E-02 0.886E-06
 gam= 0.530 trial= 0.177  step= 0.191 mean= 0.177
 gam= 1.060 g(H,U,f)=  0.737E-03 0.174E-02 0.127E-03 ort(H,U,f) = 0.671E-03-0.611E-03-0.630E-04
CGA:  21    -0.112864812405E+04   -0.23452E-03   -0.23454E-03  1320   0.260E-02-0.298E-05
 gam= 1.060 trial= 0.178  step= 0.146 mean= 0.178
 gam= 0.678 g(H,U,f)=  0.587E-03 0.114E-02 0.379E-04 ort(H,U,f) = 0.544E-03-0.520E-03-0.304E-04
CGA:  22    -0.112864831423E+04   -0.19018E-03   -0.19007E-03  1320   0.176E-02-0.623E-05
 gam= 0.678 trial= 0.176  step= 0.184 mean= 0.176
 gam= 0.708 g(H,U,f)=  0.439E-03 0.769E-03 0.385E-04 ort(H,U,f) = 0.279E-03-0.263E-03-0.201E-04
CGA:  23    -0.112864847563E+04   -0.16140E-03   -0.16141E-03  1320   0.125E-02-0.466E-05
 gam= 0.708 trial= 0.177  step= 0.180 mean= 0.177
 gam= 0.582 g(H,U,f)=  0.328E-03 0.384E-03 0.143E-04 ort(H,U,f) = 0.180E-03-0.169E-03-0.140E-04
CGA:  24    -0.112864858767E+04   -0.11204E-03   -0.11204E-03  1320   0.726E-03-0.284E-05
 gam= 0.582 trial= 0.177  step= 0.260 mean= 0.177
 gam= 0.956 g(H,U,f)=  0.224E-03 0.454E-03 0.158E-04 ort(H,U,f) = 0.118E-03-0.115E-03-0.596E-05
CGA:  25    -0.112864868178E+04   -0.94109E-04   -0.94248E-04  1320   0.694E-03-0.330E-05
 gam= 0.956 trial= 0.181  step= 0.137 mean= 0.181
 gam= 0.780 g(H,U,f)=  0.164E-03 0.359E-03 0.188E-04 ort(H,U,f) = 0.136E-03-0.130E-03-0.930E-05
CGA:  26    -0.112864872902E+04   -0.47239E-04   -0.47164E-04  1320   0.542E-03-0.326E-05
 gam= 0.780 trial= 0.179  step= 0.152 mean= 0.179
 gam= 0.420 g(H,U,f)=  0.111E-03 0.110E-03 0.679E-05 ort(H,U,f) = 0.816E-04-0.776E-04-0.744E-05
CGA:  27    -0.112864876999E+04   -0.40975E-04   -0.40929E-04  1320   0.228E-03-0.341E-05
 gam= 0.420 trial= 0.178  step= 0.291 mean= 0.178
 gam= 1.000 g(H,U,f)=  0.747E-04 0.142E-03 0.111E-04 ort(H,U,f) = 0.467E-04-0.464E-04-0.444E-05
CGA:  28    -0.112864880274E+04   -0.32748E-04   -0.32984E-04  1320   0.228E-03-0.416E-05
 gam= 1.000 trial= 0.183  step= 0.162 mean= 0.183
 gam= 0.659 g(H,U,f)=  0.518E-04 0.936E-04 0.474E-05 ort(H,U,f) = 0.435E-04-0.407E-04-0.394E-05
CGA:  29    -0.112864882081E+04   -0.18067E-04   -0.18055E-04  1320   0.150E-03-0.114E-05
 gam= 0.659 trial= 0.182  step= 0.147 mean= 0.182
 gam= 0.740 g(H,U,f)=  0.395E-04 0.691E-04 0.239E-05 ort(H,U,f) = 0.378E-04-0.365E-04-0.129E-05
CGA:  30    -0.112864883177E+04   -0.10965E-04   -0.10966E-04  1320   0.111E-03 0.193E-07
 gam= 0.740 trial= 0.180  step= 0.174 mean= 0.180
 gam= 0.812 g(H,U,f)=  0.325E-04 0.549E-04 0.273E-05 ort(H,U,f) = 0.305E-04-0.278E-04-0.163E-05
CGA:  31    -0.112864884143E+04   -0.96640E-05   -0.96677E-05  1320   0.901E-04 0.110E-05
 gam= 0.812 trial= 0.180  step= 0.221 mean= 0.180
 gam= 0.000 g(H,U,f)=  0.249E-04 0.296E-04 0.159E-05 ort(H,U,f) = 0.152E-04-0.129E-04-0.111E-05
SDA:  32    -0.112864885151E+04   -0.10079E-04   -0.10055E-04  1320   0.561E-04 0.115E-05
 gam= 0.000 trial= 0.182  step= 0.120 mean= 0.182
 gam= 0.648 g(H,U,f)=  0.165E-04 0.186E-04 0.118E-05 ort(H,U,f) = 0.147E-04-0.136E-04-0.127E-05
CGA:  33    -0.112864885488E+04   -0.33675E-05   -0.33623E-05  1320   0.363E-04-0.173E-06
 gam= 0.648 trial= 0.179  step= 0.222 mean= 0.179
 final diagonalization
   5 F= -.11286489E+04 E0= -.11286232E+04  d E =-.221951E+00  mag=    20.0000
quench:  g(F)=  0.000E+00 g(S)=  0.000E+00 dE (1.order)= 0.000E+00
 bond charge predicted
 wavefunctions rotated
       N       E                     dE             d eps       ncg     rms          ort
 gam= 0.000 g(H,U,f)=  0.664E+02 0.365E+01 0.297E-01 ort(H,U,f) = 0.000E+00 0.000E+00 0.000E+00
SDA:   1    -0.110914032194E+04    0.19509E+02    0.00000E+00  1320   0.701E+02 0.000E+00
 gam= 0.000 trial= 0.181  step= 0.311 mean= 0.181
 gam= 0.687 g(H,U,f)=  0.237E+02 0.238E+02 0.738E+00 ort(H,U,f) = 0.795E+01-0.786E+01-0.188E+00
CGA:   2    -0.112001965824E+04   -0.10879E+02   -0.10893E+02  1320   0.482E+02-0.103E+00
 gam= 0.687 trial= 0.188  step= 0.147 mean= 0.188
 gam= 0.710 g(H,U,f)=  0.175E+02 0.154E+02 0.130E+01 ort(H,U,f) = 0.118E+02-0.106E+02-0.868E+00
CGA:   3    -0.112348717034E+04   -0.34675E+01   -0.35428E+01  1320   0.342E+02 0.274E+00
 gam= 0.710 trial= 0.186  step= 0.157 mean= 0.186
 gam= 0.733 g(H,U,f)=  0.859E+01 0.156E+02 0.910E+00 ort(H,U,f) = 0.945E+01-0.902E+01-0.492E+00
CGA:   4    -0.112619449020E+04   -0.27073E+01   -0.27052E+01  1320   0.251E+02-0.593E-01
 gam= 0.733 trial= 0.184  step= 0.126 mean= 0.184
 gam= 0.221 g(H,U,f)=  0.306E+01 0.237E+01 0.111E+00 ort(H,U,f) = 0.281E+01-0.251E+01-0.179E+00
CGA:   5    -0.112778898108E+04   -0.15945E+01   -0.15831E+01  1320   0.554E+01 0.119E+00
 gam= 0.221 trial= 0.181  step= 0.166 mean= 0.181
 gam= 0.570 g(H,U,f)=  0.143E+01 0.166E+01 0.617E-01 ort(H,U,f) = 0.134E+01-0.129E+01-0.535E-01
CGA:   6    -0.112825212746E+04   -0.46315E+00   -0.46317E+00  1320   0.315E+01-0.945E-03
 gam= 0.570 trial= 0.181  step= 0.185 mean= 0.181
 gam= 0.490 g(H,U,f)=  0.532E+00 0.965E+00 0.494E-01 ort(H,U,f) = 0.487E+00-0.480E+00-0.280E-01
CGA:   7    -0.112854436143E+04   -0.29223E+00   -0.29233E+00  1320   0.155E+01-0.210E-01
 gam= 0.490 trial= 0.181  step= 0.116 mean= 0.181
 gam= 0.469 g(H,U,f)=  0.245E+00 0.458E+00 0.216E-01 ort(H,U,f) = 0.267E+00-0.246E+00-0.199E-01
CGA:   8    -0.112863370023E+04   -0.89339E-01   -0.89097E-01  1320   0.725E+00 0.614E-03
 gam= 0.469 trial= 0.178  step= 0.115 mean= 0.178
 gam= 0.387 g(H,U,f)=  0.133E+00 0.143E+00 0.469E-02 ort(H,U,f) = 0.146E+00-0.142E+00-0.462E-02
CGA:   9    -0.112867539914E+04   -0.41699E-01   -0.41764E-01  1320   0.281E+00-0.161E-03
 gam= 0.387 trial= 0.174  step= 0.216 mean= 0.174
 gam= 0.684 g(H,U,f)=  0.694E-01 0.117E+00 0.512E-02 ort(H,U,f) = 0.486E-01-0.451E-01-0.311E-02
CGA:  10    -0.112870575798E+04   -0.30359E-01   -0.30348E-01  1320   0.192E+00 0.388E-03
 gam= 0.684 trial= 0.177  step= 0.176 mean= 0.177
 gam= 0.433 g(H,U,f)=  0.425E-01 0.387E-01 0.182E-02 ort(H,U,f) = 0.208E-01-0.197E-01-0.146E-02
CGA:  11    -0.112872265621E+04   -0.16898E-01   -0.16898E-01  1320   0.830E-01-0.426E-03
 gam= 0.433 trial= 0.177  step= 0.247 mean= 0.177
 gam= 0.902 g(H,U,f)=  0.280E-01 0.445E-01 0.236E-02 ort(H,U,f) = 0.145E-01-0.131E-01-0.125E-02
CGA:  12    -0.112873288979E+04   -0.10234E-01   -0.10226E-01  1320   0.749E-01 0.163E-03
 gam= 0.902 trial= 0.180  step= 0.138 mean= 0.180
 gam= 0.848 g(H,U,f)=  0.215E-01 0.409E-01 0.114E-02 ort(H,U,f) = 0.178E-01-0.170E-01-0.698E-03
CGA:  13    -0.112873805254E+04   -0.51628E-02   -0.51713E-02  1320   0.635E-01 0.889E-04
 gam= 0.848 trial= 0.178  step= 0.173 mean= 0.178
 gam= 0.509 g(H,U,f)=  0.146E-01 0.171E-01 0.590E-03 ort(H,U,f) = 0.828E-02-0.783E-02-0.275E-03
CGA:  14    -0.112874353792E+04   -0.54854E-02   -0.54863E-02  1320   0.323E-01 0.174E-03
 gam= 0.509 trial= 0.178  step= 0.184 mean= 0.178
 gam= 0.771 g(H,U,f)=  0.114E-01 0.128E-01 0.713E-03 ort(H,U,f) = 0.751E-02-0.696E-02-0.494E-03
CGA:  15    -0.112874652428E+04   -0.29864E-02   -0.29861E-02  1320   0.249E-01 0.562E-04
 gam= 0.771 trial= 0.178  step= 0.264 mean= 0.178
 gam= 0.701 g(H,U,f)=  0.810E-02 0.902E-02 0.336E-03 ort(H,U,f) = 0.535E-02-0.501E-02-0.223E-03
CGA:  16    -0.112874982297E+04   -0.32987E-02   -0.32929E-02  1320   0.175E-01 0.117E-03
 gam= 0.701 trial= 0.182  step= 0.233 mean= 0.182
 gam= 0.578 g(H,U,f)=  0.470E-02 0.521E-02 0.183E-03 ort(H,U,f) = 0.360E-02-0.344E-02-0.101E-03
CGA:  17    -0.112875187159E+04   -0.20486E-02   -0.20469E-02  1320   0.101E-01 0.562E-04
 gam= 0.578 trial= 0.185  step= 0.173 mean= 0.185
 gam= 0.886 g(H,U,f)=  0.302E-02 0.562E-02 0.295E-03 ort(H,U,f) = 0.333E-02-0.316E-02-0.154E-03
CGA:  18    -0.112875274607E+04   -0.87449E-03   -0.87470E-03  1320   0.894E-02 0.249E-04
 gam= 0.886 trial= 0.184  step= 0.153 mean= 0.184
 gam= 0.699 g(H,U,f)=  0.188E-02 0.418E-02 0.187E-03 ort(H,U,f) = 0.257E-02-0.243E-02-0.125E-03
CGA:  19    -0.112875343298E+04   -0.68691E-03   -0.68710E-03  1320   0.625E-02 0.109E-04
 gam= 0.699 trial= 0.183  step= 0.149 mean= 0.183
 gam= 0.418 g(H,U,f)=  0.123E-02 0.134E-02 0.477E-04 ort(H,U,f) = 0.125E-02-0.120E-02-0.511E-04
CGA:  20    -0.112875390089E+04   -0.46791E-03   -0.46788E-03  1320   0.262E-02 0.196E-05
 gam= 0.418 trial= 0.181  step= 0.262 mean= 0.181
 gam= 0.829 g(H,U,f)=  0.856E-03 0.127E-02 0.466E-04 ort(H,U,f) = 0.562E-03-0.543E-03-0.256E-04
CGA:  21    -0.112875424399E+04   -0.34310E-03   -0.34339E-03  1320   0.217E-02-0.714E-05
 gam= 0.829 trial= 0.185  step= 0.232 mean= 0.185
 gam= 0.719 g(H,U,f)=  0.620E-03 0.898E-03 0.418E-04 ort(H,U,f) = 0.353E-03-0.337E-03-0.236E-04
CGA:  22    -0.112875449517E+04   -0.25118E-03   -0.25136E-03  1320   0.156E-02-0.755E-05
 gam= 0.719 trial= 0.187  step= 0.217 mean= 0.187
 gam= 0.622 g(H,U,f)=  0.435E-03 0.511E-03 0.230E-04 ort(H,U,f) = 0.224E-03-0.212E-03-0.183E-04
CGA:  23    -0.112875466353E+04   -0.16836E-03   -0.16846E-03  1320   0.970E-03-0.633E-05
 gam= 0.622 trial= 0.189  step= 0.235 mean= 0.189
 gam= 0.818 g(H,U,f)=  0.314E-03 0.455E-03 0.247E-04 ort(H,U,f) = 0.187E-03-0.181E-03-0.109E-04
CGA:  24    -0.112875477678E+04   -0.11325E-03   -0.11338E-03  1320   0.793E-03-0.536E-05
 gam= 0.818 trial= 0.191  step= 0.207 mean= 0.191
 gam= 0.979 g(H,U,f)=  0.212E-03 0.536E-03 0.287E-04 ort(H,U,f) = 0.160E-03-0.147E-03-0.156E-04
CGA:  25    -0.112875485828E+04   -0.81496E-04   -0.81515E-04  1320   0.777E-03-0.247E-05
 gam= 0.979 trial= 0.192  step= 0.115 mean= 0.192
 gam= 0.433 g(H,U,f)=  0.159E-03 0.173E-03 0.420E-05 ort(H,U,f) = 0.158E-03-0.155E-03-0.516E-05
CGA:  26    -0.112875490277E+04   -0.44491E-04   -0.44398E-04  1320   0.337E-03-0.238E-05
 gam= 0.433 trial= 0.188  step= 0.266 mean= 0.188
 gam= 0.828 g(H,U,f)=  0.102E-03 0.169E-03 0.687E-05 ort(H,U,f) = 0.791E-04-0.806E-04-0.265E-05
CGA:  27    -0.112875494717E+04   -0.44400E-04   -0.44559E-04  1320   0.279E-03-0.411E-05
 gam= 0.828 trial= 0.192  step= 0.195 mean= 0.192
 gam= 0.607 g(H,U,f)=  0.724E-04 0.927E-04 0.402E-05 ort(H,U,f) = 0.629E-04-0.618E-04-0.335E-05
CGA:  28    -0.112875497404E+04   -0.26870E-04   -0.26874E-04  1320   0.169E-03-0.226E-05
 gam= 0.607 trial= 0.192  step= 0.229 mean= 0.192
 gam= 0.691 g(H,U,f)=  0.534E-04 0.611E-04 0.243E-05 ort(H,U,f) = 0.443E-04-0.440E-04-0.162E-05
CGA:  29    -0.112875499324E+04   -0.19201E-04   -0.19224E-04  1320   0.117E-03-0.124E-05
 gam= 0.691 trial= 0.194  step= 0.259 mean= 0.194
 gam= 0.964 g(H,U,f)=  0.402E-04 0.693E-04 0.321E-05 ort(H,U,f) = 0.298E-04-0.293E-04-0.128E-05
CGA:  30    -0.112875500821E+04   -0.14975E-04   -0.14999E-04  1320   0.113E-03-0.767E-06
 gam= 0.964 trial= 0.197  step= 0.151 mean= 0.197
 gam= 0.824 g(H,U,f)=  0.331E-04 0.571E-04 0.261E-05 ort(H,U,f) = 0.330E-04-0.308E-04-0.177E-05
CGA:  31    -0.112875501664E+04   -0.84274E-05   -0.84373E-05  1320   0.928E-04 0.433E-06
 gam= 0.824 trial= 0.195  step= 0.163 mean= 0.195
 final diagonalization
   6 F= -.11287550E+04 E0= -.11287305E+04  d E =-.106162E+00  mag=    19.9999
quench:  g(F)=  0.000E+00 g(S)=  0.000E+00 dE (1.order)= 0.000E+00
 bond charge predicted
 wavefunctions rotated
       N       E                     dE             d eps       ncg     rms          ort
 gam= 0.000 g(H,U,f)=  0.457E+02 0.203E+01 0.168E-01 ort(H,U,f) = 0.000E+00 0.000E+00 0.000E+00
SDA:   1    -0.111575762552E+04    0.12997E+02    0.00000E+00  1320   0.477E+02 0.000E+00
 gam= 0.000 trial= 0.193  step= 0.315 mean= 0.193
 gam= 0.523 g(H,U,f)=  0.157E+02 0.905E+01 0.239E+00 ort(H,U,f) = 0.345E+01-0.350E+01-0.626E-01
CGA:   2    -0.112327393931E+04   -0.75163E+01   -0.75252E+01  1320   0.250E+02-0.113E+00
 gam= 0.523 trial= 0.199  step= 0.191 mean= 0.199
 gam= 0.890 g(H,U,f)=  0.102E+02 0.114E+02 0.571E+00 ort(H,U,f) = 0.735E+01-0.644E+01-0.219E+00
CGA:   3    -0.112564331167E+04   -0.23694E+01   -0.23759E+01  1320   0.222E+02 0.690E+00
 gam= 0.890 trial= 0.199  step= 0.156 mean= 0.199
 gam= 0.655 g(H,U,f)=  0.443E+01 0.955E+01 0.579E+00 ort(H,U,f) = 0.539E+01-0.500E+01-0.349E+00
CGA:   4    -0.112742337056E+04   -0.17801E+01   -0.17831E+01  1320   0.146E+02 0.403E-01
 gam= 0.655 trial= 0.197  step= 0.112 mean= 0.197
 gam= 0.222 g(H,U,f)=  0.184E+01 0.136E+01 0.291E-01 ort(H,U,f) = 0.165E+01-0.166E+01-0.413E-01
CGA:   5    -0.112823725499E+04   -0.81388E+00   -0.81569E+00  1320   0.323E+01-0.562E-01
 gam= 0.222 trial= 0.193  step= 0.180 mean= 0.193
 gam= 0.574 g(H,U,f)=  0.826E+00 0.992E+00 0.354E-01 ort(H,U,f) = 0.789E+00-0.766E+00-0.275E-01
CGA:   6    -0.112852614114E+04   -0.28889E+00   -0.28882E+00  1320   0.185E+01-0.500E-02
 gam= 0.574 trial= 0.192  step= 0.194 mean= 0.192
 gam= 0.347 g(H,U,f)=  0.269E+00 0.363E+00 0.117E-01 ort(H,U,f) = 0.223E+00-0.212E+00-0.930E-02
CGA:   7    -0.112870589172E+04   -0.17975E+00   -0.17975E+00  1320   0.644E+00 0.104E-02
 gam= 0.347 trial= 0.192  step= 0.145 mean= 0.192
 gam= 0.478 g(H,U,f)=  0.126E+00 0.177E+00 0.461E-02 ort(H,U,f) = 0.117E+00-0.113E+00-0.354E-02
CGA:   8    -0.112875268901E+04   -0.46797E-01   -0.46801E-01  1320   0.308E+00-0.884E-04
 gam= 0.478 trial= 0.190  step= 0.132 mean= 0.190
 gam= 0.672 g(H,U,f)=  0.703E-01 0.130E+00 0.590E-02 ort(H,U,f) = 0.769E-01-0.734E-01-0.349E-02
CGA:   9    -0.112877302640E+04   -0.20337E-01   -0.20354E-01  1320   0.207E+00 0.278E-04
 gam= 0.672 trial= 0.187  step= 0.160 mean= 0.187
 gam= 0.491 g(H,U,f)=  0.381E-01 0.608E-01 0.263E-02 ort(H,U,f) = 0.305E-01-0.278E-01-0.236E-02
CGA:  10    -0.112878950372E+04   -0.16477E-01   -0.16492E-01  1320   0.102E+00 0.342E-03
 gam= 0.491 trial= 0.186  step= 0.174 mean= 0.186
 gam= 0.478 g(H,U,f)=  0.245E-01 0.231E-01 0.962E-03 ort(H,U,f) = 0.135E-01-0.127E-01-0.850E-03
CGA:  11    -0.112879835909E+04   -0.88554E-02   -0.88550E-02  1320   0.485E-01-0.380E-04
 gam= 0.478 trial= 0.185  step= 0.264 mean= 0.185
 gam= 0.743 g(H,U,f)=  0.157E-01 0.197E-01 0.613E-03 ort(H,U,f) = 0.748E-02-0.692E-02-0.414E-03
CGA:  12    -0.112880478182E+04   -0.64227E-02   -0.64150E-02  1320   0.361E-01 0.152E-03
 gam= 0.743 trial= 0.189  step= 0.221 mean= 0.189
 gam= 0.751 g(H,U,f)=  0.101E-01 0.166E-01 0.387E-03 ort(H,U,f) = 0.499E-02-0.479E-02-0.133E-03
CGA:  13    -0.112880877938E+04   -0.39976E-02   -0.39958E-02  1320   0.271E-01 0.694E-04
 gam= 0.751 trial= 0.191  step= 0.137 mean= 0.191
 gam= 0.773 g(H,U,f)=  0.798E-02 0.122E-01 0.795E-03 ort(H,U,f) = 0.628E-02-0.589E-02-0.377E-03
CGA:  14    -0.112881063062E+04   -0.18512E-02   -0.18518E-02  1320   0.209E-01 0.138E-04
 gam= 0.773 trial= 0.188  step= 0.174 mean= 0.188
 gam= 0.679 g(H,U,f)=  0.634E-02 0.740E-02 0.477E-03 ort(H,U,f) = 0.490E-02-0.446E-02-0.414E-03
CGA:  15    -0.112881245064E+04   -0.18200E-02   -0.18203E-02  1320   0.142E-01 0.213E-04
 gam= 0.679 trial= 0.187  step= 0.259 mean= 0.187
 gam= 0.579 g(H,U,f)=  0.403E-02 0.405E-02 0.163E-03 ort(H,U,f) = 0.250E-02-0.236E-02-0.108E-03
CGA:  16    -0.112881429735E+04   -0.18467E-02   -0.18453E-02  1320   0.824E-02 0.341E-04
 gam= 0.579 trial= 0.191  step= 0.220 mean= 0.191
 gam= 0.667 g(H,U,f)=  0.248E-02 0.291E-02 0.104E-03 ort(H,U,f) = 0.222E-02-0.213E-02-0.773E-04
CGA:  17    -0.112881520545E+04   -0.90809E-03   -0.90787E-03  1320   0.549E-02 0.153E-04
 gam= 0.667 trial= 0.192  step= 0.216 mean= 0.192
 gam= 0.714 g(H,U,f)=  0.144E-02 0.240E-02 0.783E-04 ort(H,U,f) = 0.150E-02-0.145E-02-0.365E-04
CGA:  18    -0.112881579998E+04   -0.59453E-03   -0.59429E-03  1320   0.392E-02 0.189E-04
 gam= 0.714 trial= 0.193  step= 0.169 mean= 0.193
 gam= 0.683 g(H,U,f)=  0.903E-03 0.168E-02 0.964E-04 ort(H,U,f) = 0.102E-02-0.954E-03-0.546E-04
CGA:  19    -0.112881613281E+04   -0.33282E-03   -0.33294E-03  1320   0.268E-02 0.888E-05
 gam= 0.683 trial= 0.192  step= 0.138 mean= 0.192
 gam= 0.692 g(H,U,f)=  0.659E-03 0.114E-02 0.507E-04 ort(H,U,f) = 0.766E-03-0.722E-03-0.433E-04
CGA:  20    -0.112881631746E+04   -0.18466E-03   -0.18467E-03  1320   0.185E-02 0.123E-05
 gam= 0.692 trial= 0.189  step= 0.196 mean= 0.189
 gam= 0.647 g(H,U,f)=  0.477E-03 0.705E-03 0.163E-04 ort(H,U,f) = 0.399E-03-0.388E-03-0.117E-04
CGA:  21    -0.112881649924E+04   -0.18177E-03   -0.18177E-03  1320   0.120E-02-0.373E-06
 gam= 0.647 trial= 0.190  step= 0.237 mean= 0.190
 gam= 0.622 g(H,U,f)=  0.331E-03 0.403E-03 0.123E-04 ort(H,U,f) = 0.183E-03-0.178E-03-0.768E-05
CGA:  22    -0.112881664145E+04   -0.14221E-03   -0.14227E-03  1320   0.746E-03-0.249E-05
 gam= 0.622 trial= 0.192  step= 0.255 mean= 0.192
 gam= 0.704 g(H,U,f)=  0.226E-03 0.285E-03 0.149E-04 ort(H,U,f) = 0.116E-03-0.112E-03-0.822E-05
CGA:  23    -0.112881673607E+04   -0.94620E-04   -0.94747E-04  1320   0.525E-03-0.414E-05
 gam= 0.704 trial= 0.195  step= 0.238 mean= 0.195
 gam= 0.814 g(H,U,f)=  0.154E-03 0.263E-03 0.108E-04 ort(H,U,f) = 0.953E-04-0.910E-04-0.729E-05
CGA:  24    -0.112881679825E+04   -0.62179E-04   -0.62246E-04  1320   0.427E-03-0.303E-05
 gam= 0.814 trial= 0.197  step= 0.165 mean= 0.197
 gam= 0.857 g(H,U,f)=  0.111E-03 0.245E-03 0.102E-04 ort(H,U,f) = 0.999E-04-0.983E-04-0.360E-05
CGA:  25    -0.112881683335E+04   -0.35102E-04   -0.35071E-04  1320   0.367E-03-0.193E-05
 gam= 0.857 trial= 0.196  step= 0.142 mean= 0.196
 gam= 0.537 g(H,U,f)=  0.769E-04 0.115E-03 0.473E-05 ort(H,U,f) = 0.810E-04-0.775E-04-0.511E-05
CGA:  26    -0.112881685932E+04   -0.25971E-04   -0.25923E-04  1320   0.197E-03-0.168E-05
 gam= 0.537 trial= 0.193  step= 0.217 mean= 0.193
 gam= 0.600 g(H,U,f)=  0.506E-04 0.657E-04 0.167E-05 ort(H,U,f) = 0.444E-04-0.459E-04-0.111E-05
CGA:  27    -0.112881688053E+04   -0.21208E-04   -0.21239E-04  1320   0.118E-03-0.261E-05
 gam= 0.600 trial= 0.194  step= 0.252 mean= 0.194
 gam= 0.722 g(H,U,f)=  0.346E-04 0.486E-04 0.209E-05 ort(H,U,f) = 0.280E-04-0.283E-04-0.111E-05
CGA:  28    -0.112881689515E+04   -0.14624E-04   -0.14661E-04  1320   0.852E-04-0.133E-05
 gam= 0.722 trial= 0.197  step= 0.210 mean= 0.197
 gam= 0.737 g(H,U,f)=  0.261E-04 0.352E-04 0.149E-05 ort(H,U,f) = 0.237E-04-0.233E-04-0.974E-06
CGA:  29    -0.112881690398E+04   -0.88267E-05   -0.88299E-05  1320   0.628E-04-0.522E-06
 gam= 0.737 trial= 0.198  step= 0.240 mean= 0.198
 final diagonalization
   7 F= -.11288169E+04 E0= -.11287921E+04  d E =-.618873E-01  mag=    19.9997
quench:  g(F)=  0.000E+00 g(S)=  0.000E+00 dE (1.order)= 0.000E+00
 bond charge predicted
 wavefunctions rotated
       N       E                     dE             d eps       ncg     rms          ort
 gam= 0.000 g(H,U,f)=  0.652E+01 0.303E+00 0.822E-02 ort(H,U,f) = 0.000E+00 0.000E+00 0.000E+00
SDA:   1    -0.112689944161E+04    0.19175E+01    0.00000E+00  1320   0.683E+01 0.000E+00
 gam= 0.000 trial= 0.200  step= 0.312 mean= 0.200
 gam= 0.908 g(H,U,f)=  0.231E+01 0.369E+01 0.201E+00 ort(H,U,f) = 0.910E+00-0.864E+00-0.404E-01
CGA:   2    -0.112796557536E+04   -0.10661E+01   -0.10659E+01  1320   0.620E+01 0.588E-02
 gam= 0.908 trial= 0.206  step= 0.100 mean= 0.206
 gam= 0.496 g(H,U,f)=  0.192E+01 0.109E+01 0.616E-01 ort(H,U,f) = 0.137E+01-0.132E+01-0.881E-01
CGA:   3    -0.112827428338E+04   -0.30871E+00   -0.31053E+00  1320   0.308E+01-0.415E-01
 gam= 0.496 trial= 0.200  step= 0.252 mean= 0.200
 gam= 0.688 g(H,U,f)=  0.761E+00 0.130E+01 0.581E-01 ort(H,U,f) = 0.596E+00-0.599E+00-0.235E-01
CGA:   4    -0.112865902144E+04   -0.38474E+00   -0.38568E+00  1320   0.212E+01-0.258E-01
 gam= 0.688 trial= 0.203  step= 0.119 mean= 0.203
 gam= 0.240 g(H,U,f)=  0.308E+00 0.195E+00 0.543E-02 ort(H,U,f) = 0.264E+00-0.256E+00-0.128E-01
CGA:   5    -0.112878312348E+04   -0.12410E+00   -0.12484E+00  1320   0.508E+00-0.547E-02
 gam= 0.240 trial= 0.199  step= 0.194 mean= 0.199
 gam= 0.595 g(H,U,f)=  0.118E+00 0.181E+00 0.312E-02 ort(H,U,f) = 0.107E+00-0.105E+00-0.118E-02
CGA:   6    -0.112883220090E+04   -0.49077E-01   -0.49079E-01  1320   0.302E+00 0.330E-03
 gam= 0.595 trial= 0.198  step= 0.147 mean= 0.198
 gam= 0.580 g(H,U,f)=  0.488E-01 0.119E+00 0.715E-02 ort(H,U,f) = 0.548E-01-0.510E-01-0.371E-02
CGA:   7    -0.112885435342E+04   -0.22153E-01   -0.22160E-01  1320   0.175E+00 0.111E-03
 gam= 0.580 trial= 0.196  step= 0.107 mean= 0.196
 gam= 0.251 g(H,U,f)=  0.228E-01 0.205E-01 0.619E-03 ort(H,U,f) = 0.241E-01-0.229E-01-0.116E-02
CGA:   8    -0.112886372076E+04   -0.93673E-02   -0.93689E-02  1320   0.439E-01 0.527E-04
 gam= 0.251 trial= 0.191  step= 0.204 mean= 0.191
 gam= 0.583 g(H,U,f)=  0.106E-01 0.146E-01 0.411E-03 ort(H,U,f) = 0.884E-02-0.850E-02-0.280E-03
CGA:   9    -0.112886820992E+04   -0.44892E-02   -0.44885E-02  1320   0.256E-01 0.664E-04
 gam= 0.583 trial= 0.192  step= 0.198 mean= 0.192
 gam= 0.627 g(H,U,f)=  0.563E-02 0.989E-02 0.510E-03 ort(H,U,f) = 0.367E-02-0.340E-02-0.263E-03
CGA:  10    -0.112887075065E+04   -0.25407E-02   -0.25408E-02  1320   0.160E-01 0.869E-06
 gam= 0.627 trial= 0.192  step= 0.136 mean= 0.192
 gam= 0.670 g(H,U,f)=  0.396E-02 0.644E-02 0.348E-03 ort(H,U,f) = 0.292E-02-0.265E-02-0.257E-03
CGA:  11    -0.112887184088E+04   -0.10902E-02   -0.10908E-02  1320   0.107E-01 0.850E-05
 gam= 0.670 trial= 0.190  step= 0.160 mean= 0.190
 gam= 0.585 g(H,U,f)=  0.275E-02 0.349E-02 0.414E-04 ort(H,U,f) = 0.190E-02-0.186E-02-0.359E-04
CGA:  12    -0.112887270286E+04   -0.86198E-03   -0.86223E-03  1320   0.628E-02 0.719E-05
 gam= 0.585 trial= 0.188  step= 0.233 mean= 0.188
 gam= 0.665 g(H,U,f)=  0.164E-02 0.248E-02 0.543E-04 ort(H,U,f) = 0.768E-03-0.740E-03-0.355E-04
CGA:  13    -0.112887343612E+04   -0.73326E-03   -0.73346E-03  1320   0.418E-02-0.743E-05
 gam= 0.665 trial= 0.190  step= 0.178 mean= 0.190
 gam= 0.645 g(H,U,f)=  0.119E-02 0.147E-02 0.420E-04 ort(H,U,f) = 0.622E-03-0.600E-03-0.254E-04
CGA:  14    -0.112887380820E+04   -0.37207E-03   -0.37205E-03  1320   0.270E-02-0.424E-05
 gam= 0.645 trial= 0.190  step= 0.168 mean= 0.190
 gam= 1.011 g(H,U,f)=  0.931E-03 0.169E-02 0.102E-03 ort(H,U,f) = 0.733E-03-0.706E-03-0.334E-04
CGA:  15    -0.112887403461E+04   -0.22641E-03   -0.22635E-03  1320   0.273E-02-0.625E-05
 gam= 1.011 trial= 0.189  step= 0.181 mean= 0.189
 gam= 0.606 g(H,U,f)=  0.650E-03 0.936E-03 0.658E-04 ort(H,U,f) = 0.455E-03-0.413E-03-0.492E-04
CGA:  16    -0.112887428097E+04   -0.24636E-03   -0.24634E-03  1320   0.165E-02-0.778E-05
 gam= 0.606 trial= 0.188  step= 0.182 mean= 0.188
 gam= 0.539 g(H,U,f)=  0.423E-03 0.442E-03 0.258E-04 ort(H,U,f) = 0.343E-03-0.324E-03-0.242E-04
CGA:  17    -0.112887443097E+04   -0.15000E-03   -0.14998E-03  1320   0.891E-03-0.535E-05
 gam= 0.539 trial= 0.188  step= 0.224 mean= 0.188
 gam= 0.882 g(H,U,f)=  0.262E-03 0.505E-03 0.179E-04 ort(H,U,f) = 0.239E-03-0.230E-03-0.104E-04
CGA:  18    -0.112887453029E+04   -0.99321E-04   -0.99345E-04  1320   0.785E-03-0.137E-05
 gam= 0.882 trial= 0.190  step= 0.144 mean= 0.190
 gam= 0.661 g(H,U,f)=  0.173E-03 0.337E-03 0.871E-05 ort(H,U,f) = 0.209E-03-0.205E-03-0.445E-05
CGA:  19    -0.112887458666E+04   -0.56376E-04   -0.56360E-04  1320   0.519E-03-0.889E-06
 gam= 0.661 trial= 0.187  step= 0.163 mean= 0.187
 gam= 0.555 g(H,U,f)=  0.109E-03 0.172E-03 0.745E-05 ort(H,U,f) = 0.115E-03-0.110E-03-0.572E-05
CGA:  20    -0.112887462891E+04   -0.42251E-04   -0.42251E-04  1320   0.288E-03-0.363E-07
 gam= 0.555 trial= 0.186  step= 0.198 mean= 0.186
 gam= 0.686 g(H,U,f)=  0.784E-04 0.115E-03 0.476E-05 ort(H,U,f) = 0.625E-04-0.589E-04-0.328E-05
CGA:  21    -0.112887465741E+04   -0.28498E-04   -0.28496E-04  1320   0.198E-03 0.383E-06
 gam= 0.686 trial= 0.187  step= 0.234 mean= 0.187
 gam= 0.891 g(H,U,f)=  0.573E-04 0.114E-03 0.466E-05 ort(H,U,f) = 0.375E-04-0.346E-04-0.235E-05
CGA:  22    -0.112887468061E+04   -0.23199E-04   -0.23186E-04  1320   0.176E-03 0.483E-06
 gam= 0.891 trial= 0.189  step= 0.150 mean= 0.189
 gam= 0.806 g(H,U,f)=  0.446E-04 0.942E-04 0.328E-05 ort(H,U,f) = 0.359E-04-0.340E-04-0.218E-05
CGA:  23    -0.112887469390E+04   -0.13294E-04   -0.13290E-04  1320   0.142E-03-0.270E-06
 gam= 0.806 trial= 0.187  step= 0.166 mean= 0.187
 gam= 0.506 g(H,U,f)=  0.332E-04 0.380E-04 0.737E-06 ort(H,U,f) = 0.206E-04-0.200E-04-0.664E-06
CGA:  24    -0.112887470571E+04   -0.11808E-04   -0.11808E-04  1320   0.719E-04-0.250E-07
 gam= 0.506 trial= 0.186  step= 0.275 mean= 0.186
 gam= 0.824 g(H,U,f)=  0.215E-04 0.367E-04 0.112E-05 ort(H,U,f) = 0.115E-04-0.109E-04-0.434E-06
CGA:  25    -0.112887471561E+04   -0.98953E-05   -0.98872E-05  1320   0.593E-04 0.152E-06
 gam= 0.824 trial= 0.191  step= 0.176 mean= 0.191
 final diagonalization
   8 F= -.11288747E+04 E0= -.11288499E+04  d E =-.578116E-01  mag=    19.9997
quench:  g(F)=  0.000E+00 g(S)=  0.000E+00 dE (1.order)= 0.000E+00
 bond charge predicted
 wavefunctions rotated
       N       E                     dE             d eps       ncg     rms          ort
 gam= 0.000 g(H,U,f)=  0.604E+01 0.389E+00 0.162E-01 ort(H,U,f) = 0.000E+00 0.000E+00 0.000E+00
SDA:   1    -0.112701743776E+04    0.18573E+01    0.00000E+00  1320   0.644E+01 0.000E+00
 gam= 0.000 trial= 0.190  step= 0.291 mean= 0.190
 gam= 1.245 g(H,U,f)=  0.235E+01 0.533E+01 0.341E+00 ort(H,U,f) = 0.133E+01-0.128E+01-0.760E-01
CGA:   2    -0.112795187612E+04   -0.93444E+00   -0.93569E+00  1320   0.802E+01-0.165E-01
 gam= 1.245 trial= 0.195  step= 0.095 mean= 0.195
 gam= 0.336 g(H,U,f)=  0.195E+01 0.708E+00 0.391E-01 ort(H,U,f) = 0.111E+01-0.110E+01-0.741E-01
CGA:   3    -0.112832897807E+04   -0.37710E+00   -0.38063E+00  1320   0.270E+01-0.601E-01
 gam= 0.336 trial= 0.190  step= 0.267 mean= 0.190
 gam= 0.843 g(H,U,f)=  0.736E+00 0.148E+01 0.569E-01 ort(H,U,f) = 0.588E+00-0.571E+00-0.220E-01
CGA:   4    -0.112868592195E+04   -0.35694E+00   -0.35717E+00  1320   0.227E+01-0.419E-02
 gam= 0.843 trial= 0.194  step= 0.118 mean= 0.194
 gam= 0.191 g(H,U,f)=  0.284E+00 0.147E+00 0.327E-02 ort(H,U,f) = 0.226E+00-0.219E+00-0.942E-02
CGA:   5    -0.112881990567E+04   -0.13398E+00   -0.13423E+00  1320   0.434E+00-0.242E-02
 gam= 0.191 trial= 0.190  step= 0.217 mean= 0.190
 gam= 0.693 g(H,U,f)=  0.110E+00 0.187E+00 0.408E-02 ort(H,U,f) = 0.956E-01-0.951E-01-0.113E-02
CGA:   6    -0.112886693842E+04   -0.47033E-01   -0.47047E-01  1320   0.301E+00-0.593E-03
 gam= 0.693 trial= 0.191  step= 0.127 mean= 0.191
 gam= 0.523 g(H,U,f)=  0.507E-01 0.101E+00 0.550E-02 ort(H,U,f) = 0.600E-01-0.562E-01-0.377E-02
CGA:   7    -0.112888597077E+04   -0.19032E-01   -0.19043E-01  1320   0.157E+00 0.416E-04
 gam= 0.523 trial= 0.188  step= 0.124 mean= 0.188
 gam= 0.280 g(H,U,f)=  0.218E-01 0.216E-01 0.752E-03 ort(H,U,f) = 0.206E-01-0.194E-01-0.110E-02
CGA:   8    -0.112889573987E+04   -0.97691E-02   -0.97632E-02  1320   0.441E-01 0.320E-04
 gam= 0.280 trial= 0.185  step= 0.185 mean= 0.185
 gam= 0.584 g(H,U,f)=  0.106E-01 0.148E-01 0.432E-03 ort(H,U,f) = 0.912E-02-0.874E-02-0.343E-03
CGA:   9    -0.112889982740E+04   -0.40875E-02   -0.40875E-02  1320   0.258E-01 0.331E-04
 gam= 0.584 trial= 0.185  step= 0.200 mean= 0.185
 gam= 0.548 g(H,U,f)=  0.536E-02 0.832E-02 0.468E-03 ort(H,U,f) = 0.304E-02-0.284E-02-0.230E-03
CGA:  10    -0.112890241488E+04   -0.25875E-02   -0.25878E-02  1320   0.141E-01-0.327E-04
 gam= 0.548 trial= 0.186  step= 0.143 mean= 0.186
 gam= 0.743 g(H,U,f)=  0.366E-02 0.651E-02 0.334E-03 ort(H,U,f) = 0.262E-02-0.235E-02-0.281E-03
CGA:  11    -0.112890342865E+04   -0.10138E-02   -0.10135E-02  1320   0.105E-01-0.676E-05
 gam= 0.743 trial= 0.184  step= 0.151 mean= 0.184
 gam= 0.554 g(H,U,f)=  0.262E-02 0.318E-02 0.203E-04 ort(H,U,f) = 0.175E-02-0.174E-02-0.138E-04
CGA:  12    -0.112890422070E+04   -0.79205E-03   -0.79206E-03  1320   0.582E-02-0.374E-06
 gam= 0.554 trial= 0.182  step= 0.245 mean= 0.182
 gam= 0.656 g(H,U,f)=  0.160E-02 0.218E-02 0.466E-04 ort(H,U,f) = 0.631E-03-0.606E-03-0.265E-04
CGA:  13    -0.112890493457E+04   -0.71387E-03   -0.71395E-03  1320   0.382E-02-0.176E-05
 gam= 0.656 trial= 0.185  step= 0.184 mean= 0.185
 gam= 0.674 g(H,U,f)=  0.114E-02 0.139E-02 0.391E-04 ort(H,U,f) = 0.588E-03-0.573E-03-0.175E-04
CGA:  14    -0.112890528503E+04   -0.35046E-03   -0.35046E-03  1320   0.257E-02-0.224E-05
 gam= 0.674 trial= 0.185  step= 0.182 mean= 0.185
 gam= 1.063 g(H,U,f)=  0.883E-03 0.172E-02 0.129E-03 ort(H,U,f) = 0.663E-03-0.617E-03-0.479E-04
CGA:  15    -0.112890551912E+04   -0.23409E-03   -0.23409E-03  1320   0.273E-02-0.134E-05
 gam= 1.063 trial= 0.185  step= 0.157 mean= 0.185
 gam= 0.547 g(H,U,f)=  0.648E-03 0.796E-03 0.506E-04 ort(H,U,f) = 0.529E-03-0.481E-03-0.464E-04
CGA:  16    -0.112890573299E+04   -0.21387E-03   -0.21392E-03  1320   0.149E-02 0.212E-05
 gam= 0.547 trial= 0.183  step= 0.213 mean= 0.183
 gam= 0.584 g(H,U,f)=  0.405E-03 0.445E-03 0.230E-04 ort(H,U,f) = 0.326E-03-0.304E-03-0.189E-04
CGA:  17    -0.112890589233E+04   -0.15933E-03   -0.15929E-03  1320   0.873E-03 0.283E-05
 gam= 0.584 trial= 0.185  step= 0.195 mean= 0.185
 gam= 0.798 g(H,U,f)=  0.258E-03 0.422E-03 0.168E-04 ort(H,U,f) = 0.252E-03-0.240E-03-0.909E-05
CGA:  18    -0.112890597779E+04   -0.85459E-04   -0.85442E-04  1320   0.697E-03 0.326E-05
 gam= 0.798 trial= 0.185  step= 0.170 mean= 0.185
 gam= 0.716 g(H,U,f)=  0.159E-03 0.327E-03 0.122E-04 ort(H,U,f) = 0.182E-03-0.172E-03-0.654E-05
CGA:  19    -0.112890603709E+04   -0.59302E-04   -0.59328E-04  1320   0.499E-03 0.315E-05
 gam= 0.716 trial= 0.185  step= 0.136 mean= 0.185
 gam= 0.540 g(H,U,f)=  0.108E-03 0.156E-03 0.568E-05 ort(H,U,f) = 0.119E-03-0.111E-03-0.567E-05
CGA:  20    -0.112890607111E+04   -0.34018E-04   -0.34087E-04  1320   0.269E-03 0.282E-05
 gam= 0.540 trial= 0.182  step= 0.211 mean= 0.182
 gam= 0.705 g(H,U,f)=  0.767E-04 0.110E-03 0.318E-05 ort(H,U,f) = 0.579E-04-0.544E-04-0.193E-05
CGA:  21    -0.112890609967E+04   -0.28568E-04   -0.28545E-04  1320   0.190E-03 0.161E-05
 gam= 0.705 trial= 0.184  step= 0.250 mean= 0.184
 gam= 0.769 g(H,U,f)=  0.543E-04 0.882E-04 0.358E-05 ort(H,U,f) = 0.260E-04-0.251E-04-0.171E-05
CGA:  22    -0.112890612355E+04   -0.23880E-04   -0.23909E-04  1320   0.146E-03-0.883E-06
 gam= 0.769 trial= 0.187  step= 0.163 mean= 0.187
 gam= 0.954 g(H,U,f)=  0.420E-04 0.930E-04 0.420E-05 ort(H,U,f) = 0.293E-04-0.282E-04-0.244E-05
CGA:  23    -0.112890613542E+04   -0.11862E-04   -0.11846E-04  1320   0.139E-03-0.138E-05
 gam= 0.954 trial= 0.186  step= 0.157 mean= 0.186
 gam= 0.540 g(H,U,f)=  0.318E-04 0.424E-04 0.101E-05 ort(H,U,f) = 0.186E-04-0.191E-04-0.810E-06
CGA:  24    -0.112890614627E+04   -0.10851E-04   -0.10833E-04  1320   0.752E-04-0.126E-05
 gam= 0.540 trial= 0.184  step= 0.245 mean= 0.184
 gam= 0.741 g(H,U,f)=  0.221E-04 0.327E-04 0.105E-05 ort(H,U,f) = 0.971E-05-0.101E-04-0.563E-06
CGA:  25    -0.112890615539E+04   -0.91192E-05   -0.91477E-05  1320   0.558E-04-0.936E-06
 gam= 0.741 trial= 0.187  step= 0.209 mean= 0.187
 final diagonalization
   9 F= -.11289062E+04 E0= -.11288814E+04  d E =-.314398E-01  mag=    19.9997
quench:  g(F)=  0.000E+00 g(S)=  0.000E+00 dE (1.order)= 0.000E+00
 bond charge predicted
 wavefunctions rotated
       N       E                     dE             d eps       ncg     rms          ort
 gam= 0.000 g(H,U,f)=  0.284E+02 0.104E+01 0.338E-01 ort(H,U,f) = 0.000E+00 0.000E+00 0.000E+00
SDA:   1    -0.111988052228E+04    0.90256E+01    0.00000E+00  1320   0.294E+02 0.000E+00
 gam= 0.000 trial= 0.189  step= 0.352 mean= 0.189
 gam= 0.997 g(H,U,f)=  0.112E+02 0.169E+02 0.125E+01 ort(H,U,f) = 0.335E+01-0.347E+01-0.223E+00
CGA:   2    -0.112502364083E+04   -0.51431E+01   -0.51746E+01  1320   0.293E+02-0.341E+00
 gam= 0.997 trial= 0.197  step= 0.100 mean= 0.197
 gam= 0.503 g(H,U,f)=  0.885E+01 0.549E+01 0.430E+00 ort(H,U,f) = 0.602E+01-0.645E+01-0.525E+00
CGA:   3    -0.112639229207E+04   -0.13687E+01   -0.14547E+01  1320   0.148E+02-0.953E+00
 gam= 0.503 trial= 0.192  step= 0.230 mean= 0.192
 gam= 0.509 g(H,U,f)=  0.297E+01 0.435E+01 0.197E+00 ort(H,U,f) = 0.251E+01-0.219E+01-0.114E+00
CGA:   4    -0.112803699768E+04   -0.16447E+01   -0.16388E+01  1320   0.752E+01 0.202E+00
 gam= 0.509 trial= 0.194  step= 0.128 mean= 0.194
 gam= 0.286 g(H,U,f)=  0.126E+01 0.857E+00 0.305E-01 ort(H,U,f) = 0.116E+01-0.112E+01-0.525E-01
CGA:   5    -0.112853179460E+04   -0.49480E+00   -0.48903E+00  1320   0.215E+01-0.664E-02
 gam= 0.286 trial= 0.190  step= 0.198 mean= 0.190
 gam= 0.764 g(H,U,f)=  0.540E+00 0.106E+01 0.418E-01 ort(H,U,f) = 0.529E+00-0.534E+00-0.184E-01
CGA:   6    -0.112874457761E+04   -0.21278E+00   -0.21295E+00  1320   0.164E+01-0.228E-01
 gam= 0.764 trial= 0.191  step= 0.127 mean= 0.191
 gam= 0.413 g(H,U,f)=  0.237E+00 0.421E+00 0.193E-01 ort(H,U,f) = 0.268E+00-0.251E+00-0.165E-01
CGA:   7    -0.112884680490E+04   -0.10223E+00   -0.10320E+00  1320   0.678E+00 0.294E-03
 gam= 0.413 trial= 0.188  step= 0.120 mean= 0.188
 gam= 0.323 g(H,U,f)=  0.111E+00 0.103E+00 0.448E-02 ort(H,U,f) = 0.111E+00-0.105E+00-0.586E-02
CGA:   8    -0.112888758325E+04   -0.40778E-01   -0.40708E-01  1320   0.219E+00 0.115E-03
 gam= 0.323 trial= 0.184  step= 0.212 mean= 0.184
 gam= 0.567 g(H,U,f)=  0.481E-01 0.731E-01 0.310E-02 ort(H,U,f) = 0.374E-01-0.354E-01-0.187E-02
CGA:   9    -0.112891082187E+04   -0.23239E-01   -0.23236E-01  1320   0.124E+00 0.114E-03
 gam= 0.567 trial= 0.186  step= 0.169 mean= 0.186
 gam= 0.644 g(H,U,f)=  0.271E-01 0.496E-01 0.324E-02 ort(H,U,f) = 0.183E-01-0.164E-01-0.191E-02
CGA:  10    -0.112892132116E+04   -0.10499E-01   -0.10499E-01  1320   0.800E-01-0.290E-04
 gam= 0.644 trial= 0.185  step= 0.130 mean= 0.185
 gam= 0.572 g(H,U,f)=  0.189E-01 0.262E-01 0.630E-03 ort(H,U,f) = 0.141E-01-0.134E-01-0.753E-03
CGA:  11    -0.112892650211E+04   -0.51809E-02   -0.51881E-02  1320   0.458E-01 0.175E-04
[...]
CGA:  11    -0.112899619195E+04   -0.14030E-02   -0.14026E-02  1320   0.110E-01 0.190E-04
 gam= 0.841 trial= 0.190  step= 0.170 mean= 0.190
 gam= 0.606 g(H,U,f)=  0.249E-02 0.388E-02 0.306E-03 ort(H,U,f) = 0.159E-02-0.139E-02-0.196E-03
CGA:  12    -0.112899713064E+04   -0.93869E-03   -0.93863E-03  1320   0.668E-02 0.367E-05
 gam= 0.606 trial= 0.189  step= 0.158 mean= 0.189
 gam= 0.728 g(H,U,f)=  0.176E-02 0.287E-02 0.237E-03 ort(H,U,f) = 0.125E-02-0.107E-02-0.172E-03
CGA:  13    -0.112899765932E+04   -0.52868E-03   -0.52884E-03  1320   0.486E-02 0.884E-05
 gam= 0.728 trial= 0.187  step= 0.182 mean= 0.187
 gam= 0.527 g(H,U,f)=  0.125E-02 0.127E-02 0.462E-04 ort(H,U,f) = 0.744E-03-0.689E-03-0.478E-04
CGA:  14    -0.112899810116E+04   -0.44184E-03   -0.44187E-03  1320   0.256E-02 0.733E-05
 gam= 0.527 trial= 0.187  step= 0.284 mean= 0.187
 gam= 0.787 g(H,U,f)=  0.886E-03 0.108E-02 0.564E-04 ort(H,U,f) = 0.452E-03-0.429E-03-0.213E-04
CGA:  15    -0.112899846593E+04   -0.36477E-03   -0.36467E-03  1320   0.202E-02 0.174E-05
 gam= 0.787 trial= 0.192  step= 0.191 mean= 0.192
 gam= 1.017 g(H,U,f)=  0.667E-03 0.125E-02 0.138E-03 ort(H,U,f) = 0.597E-03-0.535E-03-0.620E-04
CGA:  16    -0.112899865888E+04   -0.19295E-03   -0.19295E-03  1320   0.205E-02 0.591E-06
 gam= 1.017 trial= 0.192  step= 0.154 mean= 0.192
 gam= 0.547 g(H,U,f)=  0.457E-03 0.624E-03 0.395E-04 ort(H,U,f) = 0.571E-03-0.532E-03-0.385E-04
CGA:  17    -0.112899881726E+04   -0.15838E-03   -0.15842E-03  1320   0.112E-02 0.933E-06
 gam= 0.547 trial= 0.190  step= 0.217 mean= 0.190
 gam= 0.526 g(H,U,f)=  0.265E-03 0.297E-03 0.281E-04 ort(H,U,f) = 0.268E-03-0.252E-03-0.163E-04
CGA:  18    -0.112899893879E+04   -0.12153E-03   -0.12154E-03  1320   0.590E-03-0.345E-06
 gam= 0.526 trial= 0.191  step= 0.212 mean= 0.191
 gam= 0.793 g(H,U,f)=  0.166E-03 0.250E-03 0.512E-04 ort(H,U,f) = 0.171E-03-0.144E-03-0.263E-04
CGA:  19    -0.112899900118E+04   -0.62388E-04   -0.62380E-04  1320   0.468E-03 0.598E-06
 gam= 0.793 trial= 0.192  step= 0.169 mean= 0.192
 gam= 0.750 g(H,U,f)=  0.115E-03 0.213E-03 0.232E-04 ort(H,U,f) = 0.129E-03-0.111E-03-0.183E-04
CGA:  20    -0.112899904081E+04   -0.39634E-04   -0.39635E-04  1320   0.350E-03 0.325E-06
 gam= 0.750 trial= 0.191  step= 0.175 mean= 0.191
 gam= 0.650 g(H,U,f)=  0.813E-04 0.138E-03 0.882E-05 ort(H,U,f) = 0.758E-04-0.696E-04-0.668E-05
CGA:  21    -0.112899907154E+04   -0.30724E-04   -0.30720E-04  1320   0.228E-03-0.487E-06
 gam= 0.650 trial= 0.190  step= 0.183 mean= 0.190
 gam= 0.684 g(H,U,f)=  0.605E-04 0.908E-04 0.441E-05 ort(H,U,f) = 0.444E-04-0.417E-04-0.340E-05
CGA:  22    -0.112899909238E+04   -0.20838E-04   -0.20837E-04  1320   0.156E-03-0.638E-06
 gam= 0.684 trial= 0.190  step= 0.235 mean= 0.190
 gam= 0.692 g(H,U,f)=  0.429E-04 0.637E-04 0.118E-05 ort(H,U,f) = 0.229E-04-0.224E-04-0.752E-06
CGA:  23    -0.112899911063E+04   -0.18256E-04   -0.18261E-04  1320   0.108E-03-0.246E-06
 gam= 0.692 trial= 0.192  step= 0.207 mean= 0.192
 gam= 0.931 g(H,U,f)=  0.296E-04 0.650E-04 0.585E-05 ort(H,U,f) = 0.196E-04-0.179E-04-0.161E-05
CGA:  24    -0.112899912177E+04   -0.11136E-04   -0.11135E-04  1320   0.100E-03 0.120E-06
 gam= 0.931 trial= 0.193  step= 0.145 mean= 0.193
 gam= 0.528 g(H,U,f)=  0.204E-04 0.283E-04 0.432E-05 ort(H,U,f) = 0.171E-04-0.134E-04-0.370E-05
CGA:  25    -0.112899912903E+04   -0.72660E-05   -0.72657E-05  1320   0.530E-04-0.578E-07
 gam= 0.528 trial= 0.191  step= 0.207 mean= 0.191
 final diagonalization
 101 F= -.11289991E+04 E0= -.11289771E+04  d E =0.100402E-01  mag=    20.0000
quench:  g(F)=  0.000E+00 g(S)=  0.000E+00 dE (1.order)= 0.000E+00
 bond charge predicted
 wavefunctions rotated
       N       E                     dE             d eps       ncg     rms          ort
 gam= 0.000 g(H,U,f)=  0.823E+01 0.349E+00 0.223E-01 ort(H,U,f) = 0.000E+00 0.000E+00 0.000E+00
SDA:   1    -0.112648117039E+04    0.25180E+01    0.00000E+00  1320   0.861E+01 0.000E+00
 gam= 0.000 trial= 0.191  step= 0.342 mean= 0.191
 gam= 0.734 g(H,U,f)=  0.291E+01 0.300E+01 0.411E+00 ort(H,U,f) = 0.902E+00-0.816E+00-0.945E-01
CGA:   2    -0.112795345038E+04   -0.14723E+01   -0.14731E+01  1320   0.632E+01-0.894E-02
 gam= 0.734 trial= 0.199  step= 0.129 mean= 0.199
 gam= 0.630 g(H,U,f)=  0.209E+01 0.168E+01 0.212E+00 ort(H,U,f) = 0.161E+01-0.139E+01-0.223E+00
CGA:   3    -0.112835467617E+04   -0.40123E+00   -0.40797E+00  1320   0.398E+01-0.521E-02
 gam= 0.630 trial= 0.195  step= 0.181 mean= 0.195
 gam= 0.640 g(H,U,f)=  0.884E+00 0.157E+01 0.979E-01 ort(H,U,f) = 0.935E+00-0.919E+00-0.680E-01
CGA:   4    -0.112871589232E+04   -0.36122E+00   -0.36032E+00  1320   0.255E+01-0.520E-01
 gam= 0.640 trial= 0.195  step= 0.137 mean= 0.195
 gam= 0.219 g(H,U,f)=  0.362E+00 0.193E+00 0.236E-02 ort(H,U,f) = 0.259E+00-0.250E+00-0.675E-02
CGA:   5    -0.112888686868E+04   -0.17098E+00   -0.17167E+00  1320   0.558E+00 0.200E-02
 gam= 0.219 trial= 0.192  step= 0.223 mean= 0.192
 gam= 0.671 g(H,U,f)=  0.152E+00 0.218E+00 0.446E-02 ort(H,U,f) = 0.134E+00-0.134E+00-0.151E-02
CGA:   6    -0.112894908859E+04   -0.62220E-01   -0.62250E-01  1320   0.375E+00-0.119E-02
 gam= 0.671 trial= 0.193  step= 0.171 mean= 0.193
 gam= 0.361 g(H,U,f)=  0.507E-01 0.763E-01 0.816E-02 ort(H,U,f) = 0.461E-01-0.414E-01-0.425E-02
CGA:   7    -0.112898106832E+04   -0.31980E-01   -0.31992E-01  1320   0.135E+00 0.453E-03
 gam= 0.361 trial= 0.192  step= 0.118 mean= 0.192
 gam= 0.461 g(H,U,f)=  0.252E-01 0.336E-01 0.351E-02 ort(H,U,f) = 0.276E-01-0.230E-01-0.439E-02
CGA:   8    -0.112898909762E+04   -0.80293E-02   -0.79824E-02  1320   0.623E-01 0.202E-03
 gam= 0.461 trial= 0.189  step= 0.156 mean= 0.189
 gam= 0.462 g(H,U,f)=  0.126E-01 0.158E-01 0.381E-03 ort(H,U,f) = 0.126E-01-0.121E-01-0.469E-03
CGA:   9    -0.112899396119E+04   -0.48636E-02   -0.48648E-02  1320   0.288E-01 0.303E-04
 gam= 0.462 trial= 0.187  step= 0.248 mean= 0.187
 gam= 0.418 g(H,U,f)=  0.637E-02 0.547E-02 0.185E-03 ort(H,U,f) = 0.226E-02-0.214E-02-0.117E-03
CGA:  10    -0.112899753091E+04   -0.35697E-02   -0.35696E-02  1320   0.120E-01 0.472E-05
 gam= 0.418 trial= 0.190  step= 0.219 mean= 0.190
 gam= 1.152 g(H,U,f)=  0.440E-02 0.872E-02 0.729E-03 ort(H,U,f) = 0.288E-02-0.262E-02-0.250E-03
CGA:  11    -0.112899884729E+04   -0.13164E-02   -0.13162E-02  1320   0.138E-01 0.110E-04
 gam= 1.152 trial= 0.191  step= 0.151 mean= 0.191
 gam= 0.577 g(H,U,f)=  0.315E-02 0.448E-02 0.370E-03 ort(H,U,f) = 0.224E-02-0.195E-02-0.295E-03
CGA:  12    -0.112899989364E+04   -0.10464E-02   -0.10462E-02  1320   0.800E-02 0.249E-05
 gam= 0.577 trial= 0.189  step= 0.186 mean= 0.189
 gam= 0.584 g(H,U,f)=  0.225E-02 0.219E-02 0.233E-03 ort(H,U,f) = 0.123E-02-0.106E-02-0.166E-03
CGA:  13    -0.112900063612E+04   -0.74247E-03   -0.74250E-03  1320   0.467E-02 0.656E-05
 gam= 0.584 trial= 0.189  step= 0.237 mean= 0.189
 gam= 0.798 g(H,U,f)=  0.165E-02 0.178E-02 0.293E-03 ort(H,U,f) = 0.926E-03-0.780E-03-0.151E-03
CGA:  14    -0.112900118919E+04   -0.55307E-03   -0.55318E-03  1320   0.373E-02-0.426E-05
 gam= 0.798 trial= 0.192  step= 0.201 mean= 0.192
 gam= 0.844 g(H,U,f)=  0.128E-02 0.164E-02 0.229E-03 ort(H,U,f) = 0.955E-03-0.812E-03-0.145E-03
CGA:  15    -0.112900156244E+04   -0.37325E-03   -0.37325E-03  1320   0.314E-02-0.135E-05
 gam= 0.844 trial= 0.192  step= 0.196 mean= 0.192
 gam= 0.780 g(H,U,f)=  0.889E-03 0.144E-02 0.128E-03 ort(H,U,f) = 0.835E-03-0.763E-03-0.770E-04
CGA:  16    -0.112900186954E+04   -0.30710E-03   -0.30711E-03  1320   0.245E-02-0.468E-05
 gam= 0.780 trial= 0.192  step= 0.149 mean= 0.192
 gam= 0.588 g(H,U,f)=  0.583E-03 0.809E-03 0.502E-04 ort(H,U,f) = 0.714E-03-0.671E-03-0.448E-04
CGA:  17    -0.112900205247E+04   -0.18292E-03   -0.18290E-03  1320   0.144E-02-0.185E-05
 gam= 0.588 trial= 0.190  step= 0.207 mean= 0.190
 gam= 0.519 g(H,U,f)=  0.341E-03 0.400E-03 0.789E-05 ort(H,U,f) = 0.357E-03-0.346E-03-0.941E-05
CGA:  18    -0.112900220146E+04   -0.14899E-03   -0.14898E-03  1320   0.748E-03 0.119E-05
 gam= 0.519 trial= 0.191  step= 0.222 mean= 0.191
 gam= 0.831 g(H,U,f)=  0.208E-03 0.408E-03 0.546E-05 ort(H,U,f) = 0.204E-03-0.201E-03-0.194E-05
CGA:  19    -0.112900228459E+04   -0.83128E-04   -0.83113E-04  1320   0.622E-03 0.103E-05
 gam= 0.831 trial= 0.192  step= 0.172 mean= 0.192
 gam= 0.593 g(H,U,f)=  0.136E-03 0.213E-03 0.189E-04 ort(H,U,f) = 0.130E-03-0.123E-03-0.676E-05
CGA:  20    -0.112900233812E+04   -0.53531E-04   -0.53530E-04  1320   0.369E-03-0.732E-07
 gam= 0.593 trial= 0.191  step= 0.166 mean= 0.191
 gam= 0.856 g(H,U,f)=  0.104E-03 0.182E-03 0.300E-04 ort(H,U,f) = 0.949E-04-0.767E-04-0.187E-04
CGA:  21    -0.112900236869E+04   -0.30572E-04   -0.30567E-04  1320   0.315E-03-0.532E-06
 gam= 0.856 trial= 0.190  step= 0.202 mean= 0.190
 gam= 0.523 g(H,U,f)=  0.731E-04 0.850E-04 0.683E-05 ort(H,U,f) = 0.428E-04-0.367E-04-0.669E-05
CGA:  22    -0.112900240045E+04   -0.31757E-04   -0.31761E-04  1320   0.165E-03-0.623E-06
 gam= 0.523 trial= 0.191  step= 0.263 mean= 0.191
 gam= 0.756 g(H,U,f)=  0.479E-04 0.684E-04 0.835E-05 ort(H,U,f) = 0.229E-04-0.195E-04-0.367E-05
CGA:  23    -0.112900242206E+04   -0.21609E-04   -0.21618E-04  1320   0.125E-03-0.248E-06
 gam= 0.756 trial= 0.194  step= 0.181 mean= 0.194
 gam= 0.835 g(H,U,f)=  0.342E-04 0.633E-04 0.664E-05 ort(H,U,f) = 0.258E-04-0.210E-04-0.485E-05
CGA:  24    -0.112900243333E+04   -0.11272E-04   -0.11273E-04  1320   0.104E-03 0.206E-07
 gam= 0.835 trial= 0.194  step= 0.159 mean= 0.194
 gam= 0.644 g(H,U,f)=  0.236E-04 0.424E-04 0.109E-05 ort(H,U,f) = 0.226E-04-0.215E-04-0.104E-05
CGA:  25    -0.112900244163E+04   -0.82961E-05   -0.82982E-05  1320   0.671E-04 0.115E-06
 gam= 0.644 trial= 0.192  step= 0.199 mean= 0.192
 final diagonalization
 102 F= -.11290024E+04 E0= -.11289802E+04  d E =-.331259E-02  mag=    20.0000
quench:  g(F)=  0.000E+00 g(S)=  0.000E+00 dE (1.order)= 0.000E+00
 bond charge predicted
 wavefunctions rotated
       N       E                     dE             d eps       ncg     rms          ort
 gam= 0.000 g(H,U,f)=  0.248E+01 0.154E+00 0.452E-02 ort(H,U,f) = 0.000E+00 0.000E+00 0.000E+00
SDA:   1    -0.112830110023E+04    0.70133E+00    0.00000E+00  1320   0.264E+01 0.000E+00
 gam= 0.000 trial= 0.192  step= 0.302 mean= 0.192
 gam= 0.542 g(H,U,f)=  0.796E+00 0.590E+00 0.465E-01 ort(H,U,f) = 0.252E+00-0.237E+00-0.154E-01
CGA:   2    -0.112870074551E+04   -0.39965E+00   -0.39967E+00  1320   0.143E+01-0.323E-03
 gam= 0.542 trial= 0.198  step= 0.178 mean= 0.198
 gam= 0.693 g(H,U,f)=  0.565E+00 0.395E+00 0.338E-01 ort(H,U,f) = 0.380E+00-0.350E+00-0.285E-01
CGA:   3    -0.112882837230E+04   -0.12763E+00   -0.12766E+00  1320   0.993E+00 0.147E-02
 gam= 0.693 trial= 0.197  step= 0.220 mean= 0.197
 gam= 0.722 g(H,U,f)=  0.192E+00 0.488E+00 0.368E-01 ort(H,U,f) = 0.178E+00-0.162E+00-0.163E-01
CGA:   4    -0.112893785382E+04   -0.10948E+00   -0.10948E+00  1320   0.717E+00 0.175E-03
 gam= 0.722 trial= 0.198  step= 0.095 mean= 0.198
 gam= 0.209 g(H,U,f)=  0.933E-01 0.526E-01 0.381E-02 ort(H,U,f) = 0.890E-01-0.756E-01-0.749E-02
CGA:   5    -0.112897257155E+04   -0.34718E-01   -0.34197E-01  1320   0.150E+00 0.586E-02
 gam= 0.209 trial= 0.193  step= 0.216 mean= 0.193
 gam= 0.685 g(H,U,f)=  0.387E-01 0.603E-01 0.348E-02 ort(H,U,f) = 0.377E-01-0.352E-01-0.219E-02
CGA:   6    -0.112898888964E+04   -0.16318E-01   -0.16313E-01  1320   0.103E+00 0.275E-03
 gam= 0.685 trial= 0.194  step= 0.166 mean= 0.194
 gam= 0.268 g(H,U,f)=  0.136E-01 0.130E-01 0.953E-03 ort(H,U,f) = 0.116E-01-0.107E-01-0.102E-02
CGA:   7    -0.112899739528E+04   -0.85056E-02   -0.85013E-02  1320   0.275E-01-0.976E-04
 gam= 0.268 trial= 0.193  step= 0.181 mean= 0.193
 gam= 0.441 g(H,U,f)=  0.553E-02 0.561E-02 0.969E-03 ort(H,U,f) = 0.504E-02-0.434E-02-0.695E-03
CGA:   8    -0.112899987577E+04   -0.24805E-02   -0.24806E-02  1320   0.121E-01 0.505E-05
 gam= 0.441 trial= 0.192  step= 0.168 mean= 0.192
 gam= 0.744 g(H,U,f)=  0.290E-02 0.536E-02 0.753E-03 ort(H,U,f) = 0.281E-02-0.228E-02-0.542E-03
CGA:   9    -0.112900089430E+04   -0.10185E-02   -0.10182E-02  1320   0.901E-02-0.143E-04
 gam= 0.744 trial= 0.191  step= 0.148 mean= 0.191
 gam= 0.478 g(H,U,f)=  0.177E-02 0.237E-02 0.165E-03 ort(H,U,f) = 0.133E-02-0.121E-02-0.121E-03
CGA:  10    -0.112900155930E+04   -0.66500E-03   -0.66504E-03  1320   0.431E-02-0.404E-05
 gam= 0.478 trial= 0.189  step= 0.171 mean= 0.189
 gam= 0.670 g(H,U,f)=  0.122E-02 0.156E-02 0.114E-03 ort(H,U,f) = 0.845E-03-0.749E-03-0.973E-04
CGA:  11    -0.112900192870E+04   -0.36940E-03   -0.36939E-03  1320   0.289E-02-0.157E-05
 gam= 0.670 trial= 0.188  step= 0.211 mean= 0.188
 gam= 0.575 g(H,U,f)=  0.781E-03 0.865E-03 0.159E-04 ort(H,U,f) = 0.429E-03-0.414E-03-0.181E-04
CGA:  12    -0.112900223353E+04   -0.30483E-03   -0.30487E-03  1320   0.166E-02-0.244E-05
 gam= 0.575 trial= 0.189  step= 0.245 mean= 0.189
 gam= 0.586 g(H,U,f)=  0.480E-03 0.487E-03 0.783E-05 ort(H,U,f) = 0.213E-03-0.209E-03-0.187E-05
CGA:  13    -0.112900243695E+04   -0.20342E-03   -0.20335E-03  1320   0.975E-03 0.218E-05
 gam= 0.586 trial= 0.192  step= 0.214 mean= 0.192
 gam= 1.048 g(H,U,f)=  0.358E-03 0.602E-03 0.610E-04 ort(H,U,f) = 0.225E-03-0.203E-03-0.185E-04
CGA:  14    -0.112900254126E+04   -0.10431E-03   -0.10426E-03  1320   0.102E-02 0.403E-05
 gam= 1.048 trial= 0.193  step= 0.155 mean= 0.193
 gam= 0.708 g(H,U,f)=  0.280E-03 0.400E-03 0.425E-04 ort(H,U,f) = 0.244E-03-0.205E-03-0.346E-04
CGA:  15    -0.112900262085E+04   -0.79592E-04   -0.79672E-04  1320   0.723E-03 0.469E-05
 gam= 0.708 trial= 0.191  step= 0.192 mean= 0.191
 gam= 0.538 g(H,U,f)=  0.194E-03 0.187E-03 0.801E-05 ort(H,U,f) = 0.152E-03-0.139E-03-0.795E-05
CGA:  16    -0.112900269064E+04   -0.69788E-04   -0.69785E-04  1320   0.389E-03 0.477E-05
 gam= 0.538 trial= 0.191  step= 0.256 mean= 0.191
 gam= 0.562 g(H,U,f)=  0.111E-03 0.101E-03 0.757E-05 ort(H,U,f) = 0.866E-04-0.796E-04-0.350E-05
CGA:  17    -0.112900274084E+04   -0.50205E-04   -0.50090E-04  1320   0.219E-03 0.350E-05
 gam= 0.562 trial= 0.194  step= 0.236 mean= 0.194
 gam= 0.901 g(H,U,f)=  0.643E-04 0.112E-03 0.211E-04 ort(H,U,f) = 0.597E-04-0.496E-04-0.920E-05
CGA:  18    -0.112900276693E+04   -0.26088E-04   -0.26068E-04  1320   0.197E-03 0.893E-06
 gam= 0.901 trial= 0.196  step= 0.145 mean= 0.196
 gam= 0.558 g(H,U,f)=  0.418E-04 0.635E-04 0.475E-05 ort(H,U,f) = 0.488E-04-0.422E-04-0.600E-05
CGA:  19    -0.112900278130E+04   -0.14371E-04   -0.14384E-04  1320   0.110E-03 0.543E-06
 gam= 0.558 trial= 0.194  step= 0.170 mean= 0.194
 gam= 0.714 g(H,U,f)=  0.289E-04 0.488E-04 0.906E-06 ort(H,U,f) = 0.286E-04-0.277E-04-0.476E-06
CGA:  20    -0.112900279068E+04   -0.93853E-05   -0.93906E-05  1320   0.786E-04 0.466E-06
 gam= 0.714 trial= 0.193  step= 0.206 mean= 0.193
 final diagonalization
 103 F= -.11290028E+04 E0= -.11289805E+04  d E =-.349058E-03  mag=    20.0000
quench:  g(F)=  0.000E+00 g(S)=  0.000E+00 dE (1.order)= 0.000E+00
 bond charge predicted
 wavefunctions rotated
       N       E                     dE             d eps       ncg     rms          ort
 gam= 0.000 g(H,U,f)=  0.147E+01 0.774E-01 0.155E-02 ort(H,U,f) = 0.000E+00 0.000E+00 0.000E+00
SDA:   1    -0.112854694821E+04    0.45583E+00    0.00000E+00  1320   0.155E+01 0.000E+00
 gam= 0.000 trial= 0.193  step= 0.329 mean= 0.193
 gam= 0.761 g(H,U,f)=  0.575E+00 0.582E+00 0.231E-01 ort(H,U,f) = 0.171E+00-0.169E+00-0.525E-02
CGA:   2    -0.112880182380E+04   -0.25488E+00   -0.25509E+00  1320   0.118E+01-0.280E-02
 gam= 0.761 trial= 0.200  step= 0.129 mean= 0.200
 gam= 0.706 g(H,U,f)=  0.436E+00 0.366E+00 0.307E-01 ort(H,U,f) = 0.329E+00-0.308E+00-0.217E-01
CGA:   3    -0.112887724970E+04   -0.75426E-01   -0.75997E-01  1320   0.833E+00-0.753E-03
 gam= 0.706 trial= 0.197  step= 0.201 mean= 0.197
 gam= 0.556 g(H,U,f)=  0.157E+00 0.280E+00 0.261E-01 ort(H,U,f) = 0.159E+00-0.150E+00-0.118E-01
CGA:   4    -0.112896078507E+04   -0.83535E-01   -0.83548E-01  1320   0.463E+00-0.309E-02
 gam= 0.556 trial= 0.197  step= 0.128 mean= 0.197
 gam= 0.250 g(H,U,f)=  0.622E-01 0.428E-01 0.107E-01 ort(H,U,f) = 0.551E-01-0.410E-01-0.143E-01
CGA:   5    -0.112899022402E+04   -0.29439E-01   -0.29553E-01  1320   0.116E+00-0.153E-03
 gam= 0.250 trial= 0.193  step= 0.173 mean= 0.193
 gam= 0.504 g(H,U,f)=  0.274E-01 0.265E-01 0.436E-02 ort(H,U,f) = 0.268E-01-0.225E-01-0.455E-02
CGA:   6    -0.112900025398E+04   -0.10030E-01   -0.10025E-01  1320   0.583E-01-0.179E-03
 gam= 0.504 trial= 0.192  step= 0.200 mean= 0.192
 gam= 0.457 g(H,U,f)=  0.967E-02 0.156E-01 0.135E-02 ort(H,U,f) = 0.897E-02-0.787E-02-0.107E-02
CGA:   7    -0.112900607575E+04   -0.58218E-02   -0.58215E-02  1320   0.266E-01 0.342E-04
 gam= 0.457 trial= 0.193  step= 0.129 mean= 0.193
 gam= 0.448 g(H,U,f)=  0.454E-02 0.691E-02 0.474E-03 ort(H,U,f) = 0.465E-02-0.414E-02-0.501E-03
CGA:   8    -0.112900780028E+04   -0.17245E-02   -0.17234E-02  1320   0.119E-01 0.119E-04
 gam= 0.448 trial= 0.190  step= 0.133 mean= 0.190
 gam= 0.455 g(H,U,f)=  0.246E-02 0.287E-02 0.920E-04 ort(H,U,f) = 0.262E-02-0.250E-02-0.112E-03
CGA:   9    -0.112900859208E+04   -0.79180E-03   -0.79217E-03  1320   0.542E-02 0.134E-04
 gam= 0.455 trial= 0.187  step= 0.241 mean= 0.187
 gam= 0.495 g(H,U,f)=  0.115E-02 0.146E-02 0.704E-04 ort(H,U,f) = 0.562E-03-0.512E-03-0.339E-04
CGA:  10    -0.112900924682E+04   -0.65474E-03   -0.65428E-03  1320   0.269E-02 0.161E-04
 gam= 0.495 trial= 0.189  step= 0.178 mean= 0.189
 gam= 0.655 g(H,U,f)=  0.750E-03 0.939E-03 0.712E-04 ort(H,U,f) = 0.476E-03-0.420E-03-0.531E-04
CGA:  11    -0.112900948667E+04   -0.23985E-03   -0.23986E-03  1320   0.176E-02 0.264E-05
 gam= 0.655 trial= 0.189  step= 0.207 mean= 0.189
 gam= 0.785 g(H,U,f)=  0.484E-03 0.831E-03 0.678E-04 ort(H,U,f) = 0.298E-03-0.268E-03-0.280E-04
CGA:  12    -0.112900966890E+04   -0.18223E-03   -0.18221E-03  1320   0.138E-02 0.245E-05
 gam= 0.785 trial= 0.190  step= 0.147 mean= 0.190
 gam= 0.665 g(H,U,f)=  0.345E-03 0.513E-03 0.609E-04 ort(H,U,f) = 0.249E-03-0.203E-03-0.450E-04
CGA:  13    -0.112900977062E+04   -0.10173E-03   -0.10175E-03  1320   0.920E-03 0.446E-06
 gam= 0.665 trial= 0.188  step= 0.184 mean= 0.188
 gam= 0.462 g(H,U,f)=  0.229E-03 0.176E-03 0.195E-04 ort(H,U,f) = 0.114E-03-0.976E-04-0.179E-04
CGA:  14    -0.112900985516E+04   -0.84537E-04   -0.84532E-04  1320   0.424E-03-0.182E-05
 gam= 0.462 trial= 0.187  step= 0.298 mean= 0.187
 gam= 1.007 g(H,U,f)=  0.166E-03 0.221E-03 0.411E-04 ort(H,U,f) = 0.850E-04-0.718E-04-0.161E-04
CGA:  15    -0.112900991801E+04   -0.62855E-04   -0.63012E-04  1320   0.428E-03-0.290E-05
 gam= 1.007 trial= 0.193  step= 0.183 mean= 0.193
 gam= 0.748 g(H,U,f)=  0.118E-03 0.171E-03 0.305E-04 ort(H,U,f) = 0.957E-04-0.788E-04-0.190E-04
CGA:  16    -0.112900995692E+04   -0.38904E-04   -0.38893E-04  1320   0.320E-03-0.202E-05
 gam= 0.748 trial= 0.192  step= 0.155 mean= 0.192
 gam= 0.605 g(H,U,f)=  0.796E-04 0.105E-03 0.901E-05 ort(H,U,f) = 0.883E-04-0.803E-04-0.887E-05
CGA:  17    -0.112900998155E+04   -0.24635E-04   -0.24620E-04  1320   0.193E-03-0.829E-06
 gam= 0.605 trial= 0.191  step= 0.187 mean= 0.191
 gam= 0.657 g(H,U,f)=  0.489E-04 0.745E-04 0.366E-05 ort(H,U,f) = 0.539E-04-0.512E-04-0.267E-05
CGA:  18    -0.112900999955E+04   -0.17994E-04   -0.17995E-04  1320   0.127E-03 0.751E-09
 gam= 0.657 trial= 0.190  step= 0.189 mean= 0.190
 gam= 0.583 g(H,U,f)=  0.305E-04 0.427E-04 0.825E-06 ort(H,U,f) = 0.318E-04-0.313E-04-0.875E-06
CGA:  19    -0.112901001156E+04   -0.12009E-04   -0.12008E-04  1320   0.740E-04-0.343E-06
 gam= 0.583 trial= 0.190  step= 0.212 mean= 0.190
 gam= 0.610 g(H,U,f)=  0.192E-04 0.250E-04 0.971E-06 ort(H,U,f) = 0.166E-04-0.171E-04-0.180E-06
CGA:  20    -0.112901001939E+04   -0.78310E-05   -0.78394E-05  1320   0.452E-04-0.761E-06
 gam= 0.610 trial= 0.191  step= 0.197 mean= 0.191
 final diagonalization
 104 F= -.11290100E+04 E0= -.11289878E+04  d E =-.722870E-02  mag=    20.0000
quench:  g(F)=  0.000E+00 g(S)=  0.000E+00 dE (1.order)= 0.000E+00
 reached required accuracy - stopping structural energy minimisation
 writing wavefunctions
