       N       E                     dE             d eps       ncg     rms          ort
DAV:   1     0.147173700586E+05    0.14717E+05   -0.58416E+05  2640   0.173E+03
DAV:   2     0.123346899336E+04   -0.13484E+05   -0.12976E+05  2640   0.523E+02
DAV:   3    -0.132070074000E+04   -0.25542E+04   -0.24752E+04  2640   0.207E+02
DAV:   4    -0.148579947632E+04   -0.16510E+03   -0.16120E+03  2640   0.601E+01
DAV:   5    -0.149408171674E+04   -0.82822E+01   -0.77251E+01  2640   0.119E+01
SDA:   6     0.613969219514E+02    0.15555E+04   -0.77251E+01  2640   0.938E+04 0.000E+00
CGA:   7    -0.906684495561E+03   -0.96808E+03   -0.11141E+04  2640   0.110E+04 0.401E+03
CGA:   8    -0.964672854330E+03   -0.57988E+02   -0.52902E+02  2640   0.690E+03 0.979E+02
CGA:   9    -0.100936445223E+04   -0.44692E+02   -0.68196E+02  2640   0.131E+04-0.118E+03
CGA:  10    -0.106296178263E+04   -0.53597E+02   -0.40480E+02  2640   0.377E+03-0.169E+03
CGA:  11    -0.108077944460E+04   -0.17818E+02   -0.22777E+02  2640   0.283E+03-0.346E+02
CGA:  12    -0.109994210157E+04   -0.19163E+02   -0.16744E+02  2640   0.272E+03-0.207E+02
CGA:  13    -0.110397307367E+04   -0.40310E+01   -0.10426E+02  2640   0.275E+03-0.113E+03
CGA:  14    -0.110897969594E+04   -0.50066E+01   -0.54356E+01  2640   0.194E+03-0.115E+02
CGA:  15    -0.110752928368E+04    0.14504E+01   -0.65285E+01  2640   0.294E+03-0.201E+03
CGA:  16    -0.111188195213E+04   -0.43527E+01   -0.11310E+02  2640   0.273E+03-0.183E+03
CGA:  17    -0.111354865199E+04   -0.16667E+01   -0.10672E+02  2640   0.258E+03-0.185E+03
CGA:  18    -0.111863447194E+04   -0.50858E+01   -0.70462E+01  2640   0.733E+02-0.104E+03
CGA:  19    -0.112184428242E+04   -0.32098E+01   -0.31806E+01  2640   0.339E+02 0.162E+01
CGA:  20    -0.112341389892E+04   -0.15696E+01   -0.18711E+01  2640   0.281E+02-0.407E+01
CGA:  21    -0.112562974388E+04   -0.22158E+01   -0.21875E+01  2640   0.200E+02 0.282E-01
CGA:  22    -0.112641980124E+04   -0.79006E+00   -0.90288E+00  2640   0.866E+01-0.182E+01
CGA:  23    -0.112696137531E+04   -0.54157E+00   -0.56083E+00  2640   0.586E+01-0.789E-01
CGA:  24    -0.112736032511E+04   -0.39895E+00   -0.40912E+00  2640   0.483E+01-0.461E-01
CGA:  25    -0.112770107760E+04   -0.34075E+00   -0.34714E+00  2640   0.372E+01-0.183E-01
CGA:  26    -0.112799791714E+04   -0.29684E+00   -0.31788E+00  2640   0.249E+01 0.181E+00
CGA:  27    -0.112818381971E+04   -0.18590E+00   -0.18993E+00  2640   0.173E+01-0.574E-02
CGA:  28    -0.112833517984E+04   -0.15136E+00   -0.15158E+00  2640   0.155E+01 0.126E-02
CGA:  29    -0.112844748070E+04   -0.11230E+00   -0.11711E+00  2640   0.890E+00 0.135E-01
CGA:  30    -0.112852198578E+04   -0.74505E-01   -0.75284E-01  2640   0.502E+00 0.752E-02
CGA:  31    -0.112857033404E+04   -0.48348E-01   -0.48555E-01  2640   0.378E+00 0.907E-02
CGA:  32    -0.112860513503E+04   -0.34801E-01   -0.34997E-01  2640   0.306E+00 0.533E-02
CGA:  33    -0.112863267601E+04   -0.27541E-01   -0.27580E-01  2640   0.203E+00 0.895E-03
CGA:  34    -0.112865360142E+04   -0.20925E-01   -0.20927E-01  2640   0.141E+00 0.238E-02
CGA:  35    -0.112867010255E+04   -0.16501E-01   -0.16482E-01  2640   0.144E+00 0.884E-03
CGA:  36    -0.112868489187E+04   -0.14789E-01   -0.14771E-01  2640   0.133E+00-0.502E-02
CGA:  37    -0.112869683789E+04   -0.11946E-01   -0.12023E-01  2640   0.577E-01 0.274E-02
CGA:  38    -0.112870265017E+04   -0.58123E-02   -0.58064E-02  2640   0.478E-01-0.768E-03
CGA:  39    -0.112870920315E+04   -0.65530E-02   -0.65345E-02  2640   0.306E-01 0.257E-03
CGA:  40    -0.112871194294E+04   -0.27398E-02   -0.27274E-02  2640   0.218E-01-0.375E-03
CGA:  41    -0.112871440506E+04   -0.24621E-02   -0.24632E-02  2640   0.217E-01-0.122E-03
CGA:  42    -0.112871612506E+04   -0.17200E-02   -0.17130E-02  2640   0.113E-01-0.106E-03
CGA:  43    -0.112871758884E+04   -0.14638E-02   -0.14711E-02  2640   0.123E-01-0.180E-03
CGA:  44    -0.112871884283E+04   -0.12540E-02   -0.12540E-02  2640   0.575E-02 0.557E-04
CGA:  45    -0.112871944732E+04   -0.60449E-03   -0.60450E-03  2640   0.360E-02 0.264E-04
CGA:  46    -0.112871991790E+04   -0.47058E-03   -0.46860E-03  2640   0.381E-02 0.820E-04
CGA:  47    -0.112872033487E+04   -0.41697E-03   -0.41703E-03  2640   0.255E-02 0.203E-04
SDA:  48    -0.112872054547E+04   -0.21060E-03   -0.21176E-03  2640   0.187E-02 0.455E-04
CGA:  49    -0.112872063758E+04   -0.92111E-04   -0.91733E-04  2640   0.120E-02-0.221E-05
CGA:  50    -0.112872123595E+04   -0.59837E-03   -0.45277E-03  2640   0.350E-02 0.667E-03
CGA:  51    -0.112872150249E+04   -0.26654E-03   -0.26670E-03  2640   0.125E-02 0.628E-05
CGA:  52    -0.112872165980E+04   -0.15731E-03   -0.15734E-03  2640   0.251E-02 0.424E-05
CGA:  53    -0.112872195119E+04   -0.29139E-03   -0.35063E-03  2640   0.107E-01-0.173E-02
CGA:  54    -0.112872243357E+04   -0.48238E-03   -0.48200E-03  2640   0.198E-02-0.134E-04
CGA:  55    -0.112872259725E+04   -0.16368E-03   -0.16344E-03  2640   0.212E-02-0.729E-05
CGA:  56    -0.112872290671E+04   -0.30946E-03   -0.31722E-03  2640   0.400E-02-0.158E-03
CGA:  57    -0.112872312490E+04   -0.21819E-03   -0.92238E-03  2640   0.436E-01-0.642E-02
CGA:  58    -0.112872511454E+04   -0.19896E-02   -0.20325E-02  2640   0.820E-02-0.625E-03
CGA:  59    -0.112872591202E+04   -0.79747E-03   -0.79695E-03  2640   0.931E-02 0.878E-05
CGA:  60    -0.112872681847E+04   -0.90646E-03   -0.90743E-03  2640   0.842E-02 0.400E-04
CGA:  61    -0.112872834887E+04   -0.15304E-02   -0.15311E-02  2640   0.264E-01-0.275E-04
CGA:  62    -0.112873021702E+04   -0.18682E-02   -0.78169E-02  2640   0.382E+00-0.248E-01
CGA:  63    -0.112874767470E+04   -0.17458E-01   -0.17033E-01  2640   0.732E-01 0.619E-02
CGA:  64    -0.112875577045E+04   -0.80957E-02   -0.80892E-02  2640   0.601E-01-0.201E-03
CGA:  65    -0.112876404283E+04   -0.82724E-02   -0.82402E-02  2640   0.408E-01 0.121E-02
CGA:  66    -0.112876796011E+04   -0.39173E-02   -0.39087E-02  2640   0.406E-01-0.874E-04
CGA:  67    -0.112877247336E+04   -0.45133E-02   -0.45064E-02  2640   0.584E-01-0.295E-03
CGA:  68    -0.112877957334E+04   -0.71000E-02   -0.71012E-02  2640   0.609E-01-0.319E-03
CGA:  69    -0.112878598646E+04   -0.64131E-02   -0.64578E-02  2640   0.386E-01 0.130E-02
CGA:  70    -0.112879113881E+04   -0.51523E-02   -0.51508E-02  2640   0.581E-01 0.847E-04
CGA:  71    -0.112879493455E+04   -0.37957E-02   -0.37991E-02  2640   0.229E-01 0.537E-05
CGA:  72    -0.112879684366E+04   -0.19091E-02   -0.19102E-02  2640   0.787E-02 0.145E-04
CGA:  73    -0.112879763360E+04   -0.78995E-03   -0.79010E-03  2640   0.575E-02 0.495E-05
CGA:  74    -0.112879808357E+04   -0.44997E-03   -0.45010E-03  2640   0.512E-02 0.181E-05
CGA:  75    -0.112879856225E+04   -0.47869E-03   -0.47873E-03  2640   0.321E-02 0.583E-05
CGA:  76    -0.112879892949E+04   -0.36723E-03   -0.36720E-03  2640   0.230E-02 0.152E-04
CGA:  77    -0.112879914125E+04   -0.21177E-03   -0.21194E-03  2640   0.167E-02 0.991E-05
CGA:  78    -0.112879928695E+04   -0.14570E-03   -0.14594E-03  2640   0.184E-02 0.823E-05
CGA:  79    -0.112879948919E+04   -0.20224E-03   -0.20225E-03  2640   0.128E-02 0.826E-05
CGA:  80    -0.112879960926E+04   -0.12007E-03   -0.12003E-03  2640   0.826E-03-0.685E-06
CGA:  81    -0.112879968677E+04   -0.77515E-04   -0.77446E-04  2640   0.638E-03-0.454E-05
CGA:  82    -0.112879974358E+04   -0.56812E-04   -0.56714E-04  2640   0.543E-03-0.529E-05
CGA:  83    -0.112879978389E+04   -0.40308E-04   -0.40186E-04  2640   0.307E-03-0.337E-05
CGA:  84    -0.112879982056E+04   -0.36666E-04   -0.36693E-04  2640   0.271E-03-0.202E-05
CGA:  85    -0.112879985008E+04   -0.29524E-04   -0.29527E-04  2640   0.211E-03-0.943E-06
CGA:  86    -0.112879986397E+04   -0.13886E-04   -0.13867E-04  2640   0.151E-03-0.429E-06
CGA:  87    -0.112879988061E+04   -0.16644E-04   -0.16650E-04  2640   0.113E-03-0.115E-05
CGA:  88    -0.112879989565E+04   -0.15038E-04   -0.15065E-04  2640   0.116E-03-0.963E-06
CGA:  89    -0.112879990603E+04   -0.10380E-04   -0.10383E-04  2640   0.101E-03 0.122E-06
CGA:  90    -0.112879991321E+04   -0.71758E-05   -0.72091E-05  2640   0.584E-04 0.902E-06
   1 F= -.11287999E+04 E0= -.11287773E+04  d E =-.112880E+04  mag=    20.0000
       N       E                     dE             d eps       ncg     rms          ort
SDA:   1    -0.112714681941E+04    0.16531E+01    0.00000E+00  2640   0.712E+01 0.000E+00
CGA:   2    -0.112797794767E+04   -0.83113E+00   -0.83302E+00  2640   0.511E+01-0.885E-01
CGA:   3    -0.112829515347E+04   -0.31721E+00   -0.32587E+00  2640   0.216E+01-0.285E-01
CGA:   4    -0.112868422454E+04   -0.38907E+00   -0.39299E+00  2640   0.113E+01-0.471E-01
CGA:   5    -0.112875646023E+04   -0.72236E-01   -0.73720E-01  2640   0.354E+00-0.274E-02
CGA:   6    -0.112878066279E+04   -0.24203E-01   -0.24146E-01  2640   0.220E+00 0.413E-03
CGA:   7    -0.112879901912E+04   -0.18356E-01   -0.18316E-01  2640   0.593E-01-0.238E-03
CGA:   8    -0.112880373203E+04   -0.47129E-02   -0.47255E-02  2640   0.354E-01 0.190E-03
CGA:   9    -0.112880697770E+04   -0.32457E-02   -0.32449E-02  2640   0.180E-01-0.719E-05
CGA:  10    -0.112880869958E+04   -0.17219E-02   -0.17219E-02  2640   0.886E-02 0.437E-05
CGA:  11    -0.112880929840E+04   -0.59882E-03   -0.59901E-03  2640   0.624E-02 0.109E-05
CGA:  12    -0.112881007372E+04   -0.77532E-03   -0.77565E-03  2640   0.373E-02-0.102E-04
CGA:  13    -0.112881040044E+04   -0.32672E-03   -0.32675E-03  2640   0.207E-02-0.328E-06
CGA:  14    -0.112881060455E+04   -0.20412E-03   -0.20411E-03  2640   0.175E-02-0.381E-05
CGA:  15    -0.112881078857E+04   -0.18402E-03   -0.18405E-03  2640   0.143E-02-0.579E-05
CGA:  16    -0.112881089154E+04   -0.10297E-03   -0.10283E-03  2640   0.712E-03-0.648E-05
CGA:  17    -0.112881097255E+04   -0.81008E-04   -0.81122E-04  2640   0.578E-03-0.685E-05
CGA:  18    -0.112881102331E+04   -0.50757E-04   -0.50701E-04  2640   0.320E-03-0.574E-05
CGA:  19    -0.112881105674E+04   -0.33431E-04   -0.33460E-04  2640   0.224E-03-0.395E-05
CGA:  20    -0.112881107446E+04   -0.17723E-04   -0.17696E-04  2640   0.185E-03-0.152E-05
CGA:  21    -0.112881109326E+04   -0.18802E-04   -0.18801E-04  2640   0.918E-04 0.366E-06
CGA:  22    -0.112881110473E+04   -0.11468E-04   -0.11419E-04  2640   0.942E-04 0.189E-05
CGA:  23    -0.112881111270E+04   -0.79729E-05   -0.79999E-05  2640   0.518E-04 0.164E-05
   2 F= -.11288111E+04 E0= -.11287885E+04  d E =-.111995E-01  mag=    20.0000
       N       E                     dE             d eps       ncg     rms          ort
SDA:   1    -0.112863776303E+04    0.17334E+00    0.00000E+00  2640   0.788E+00 0.000E+00
CGA:   2    -0.112871738195E+04   -0.79619E-01   -0.79600E-01  2640   0.664E+00 0.609E-02
CGA:   3    -0.112875700224E+04   -0.39620E-01   -0.39270E-01  2640   0.234E+00 0.248E-02
CGA:   4    -0.112878854132E+04   -0.31539E-01   -0.31610E-01  2640   0.306E+00-0.138E-02
CGA:   5    -0.112880674615E+04   -0.18205E-01   -0.18367E-01  2640   0.503E-01-0.421E-03
CGA:   6    -0.112881093295E+04   -0.41868E-02   -0.41737E-02  2640   0.203E-01-0.376E-03
CGA:   7    -0.112881336164E+04   -0.24287E-02   -0.24303E-02  2640   0.718E-02-0.945E-04
CGA:   8    -0.112881384107E+04   -0.47944E-03   -0.47848E-03  2640   0.415E-02-0.233E-04
CGA:   9    -0.112881420742E+04   -0.36635E-03   -0.36631E-03  2640   0.251E-02-0.530E-05
CGA:  10    -0.112881439539E+04   -0.18797E-03   -0.18803E-03  2640   0.115E-02 0.275E-06
CGA:  11    -0.112881449176E+04   -0.96369E-04   -0.96375E-04  2640   0.540E-03 0.992E-06
CGA:  12    -0.112881457233E+04   -0.80572E-04   -0.80562E-04  2640   0.486E-03 0.146E-06
CGA:  13    -0.112881460695E+04   -0.34617E-04   -0.34618E-04  2640   0.217E-03 0.220E-06
CGA:  14    -0.112881462861E+04   -0.21659E-04   -0.21658E-04  2640   0.188E-03 0.284E-06
CGA:  15    -0.112881464487E+04   -0.16266E-04   -0.16280E-04  2640   0.150E-03 0.156E-05
CGA:  16    -0.112881465840E+04   -0.13528E-04   -0.13540E-04  2640   0.592E-04 0.230E-05
CGA:  17    -0.112881466599E+04   -0.75937E-05   -0.75352E-05  2640   0.493E-04 0.194E-05
   3 F= -.11288147E+04 E0= -.11287921E+04  d E =-.147528E-01  mag=    20.0000
       N       E                     dE             d eps       ncg     rms          ort
SDA:   1    -0.112777063031E+04    0.10440E+01    0.00000E+00  2640   0.335E+01 0.000E+00
CGA:   2    -0.112833526176E+04   -0.56463E+00   -0.56315E+00  2640   0.360E+01 0.189E-01
CGA:   3    -0.112851979806E+04   -0.18454E+00   -0.18101E+00  2640   0.149E+01 0.380E-01
CGA:   4    -0.112872791095E+04   -0.20811E+00   -0.20807E+00  2640   0.791E+00 0.858E-03
CGA:   5    -0.112877632277E+04   -0.48412E-01   -0.48575E-01  2640   0.218E+00-0.342E-03
CGA:   6    -0.112880062803E+04   -0.24305E-01   -0.24328E-01  2640   0.123E+00-0.799E-03
CGA:   7    -0.112881088721E+04   -0.10259E-01   -0.10279E-01  2640   0.417E-01 0.650E-03
CGA:   8    -0.112881380256E+04   -0.29154E-02   -0.29103E-02  2640   0.216E-01 0.428E-04
CGA:   9    -0.112881573863E+04   -0.19361E-02   -0.19363E-02  2640   0.136E-01 0.198E-04
CGA:  10    -0.112881670809E+04   -0.96946E-03   -0.96999E-03  2640   0.670E-02-0.157E-05
CGA:  11    -0.112881728592E+04   -0.57783E-03   -0.57781E-03  2640   0.354E-02 0.239E-05
CGA:  12    -0.112881776774E+04   -0.48182E-03   -0.48054E-03  2640   0.212E-02 0.307E-04
CGA:  13    -0.112881798810E+04   -0.22036E-03   -0.22023E-03  2640   0.137E-02 0.193E-04
CGA:  14    -0.112881810860E+04   -0.12050E-03   -0.12055E-03  2640   0.133E-02 0.413E-05
CGA:  15    -0.112881823038E+04   -0.12178E-03   -0.12174E-03  2640   0.818E-03-0.723E-05
CGA:  16    -0.112881831271E+04   -0.82329E-04   -0.82441E-04  2640   0.558E-03-0.207E-04
CGA:  17    -0.112881836942E+04   -0.56707E-04   -0.56917E-04  2640   0.343E-03-0.254E-04
CGA:  18    -0.112881840284E+04   -0.33426E-04   -0.33532E-04  2640   0.249E-03-0.182E-04
CGA:  19    -0.112881842190E+04   -0.19055E-04   -0.18918E-04  2640   0.159E-03-0.835E-05
CGA:  20    -0.112881843686E+04   -0.14962E-04   -0.14966E-04  2640   0.132E-03-0.316E-05
CGA:  21    -0.112881844772E+04   -0.10862E-04   -0.10863E-04  2640   0.715E-04 0.131E-06
CGA:  22    -0.112881845553E+04   -0.78116E-05   -0.77986E-05  2640   0.582E-04 0.941E-06
   4 F= -.11288185E+04 E0= -.11287956E+04  d E =-.378954E-02  mag=    20.0000
       N       E                     dE             d eps       ncg     rms          ort
SDA:   1    -0.112865031623E+04    0.16813E+00    0.00000E+00  2640   0.563E+00 0.000E+00
CGA:   2    -0.112873303944E+04   -0.82723E-01   -0.82905E-01  2640   0.736E+00-0.277E-02
CGA:   3    -0.112877269383E+04   -0.39654E-01   -0.40158E-01  2640   0.240E+00-0.241E-02
CGA:   4    -0.112880127619E+04   -0.28582E-01   -0.28578E-01  2640   0.214E+00 0.156E-03
CGA:   5    -0.112881438911E+04   -0.13113E-01   -0.13072E-01  2640   0.361E-01-0.120E-03
CGA:   6    -0.112881830703E+04   -0.39179E-02   -0.39184E-02  2640   0.262E-01-0.113E-03
CGA:   7    -0.112882026746E+04   -0.19604E-02   -0.19554E-02  2640   0.976E-02-0.154E-03
CGA:   8    -0.112882094675E+04   -0.67929E-03   -0.67844E-03  2640   0.398E-02-0.386E-04
CGA:   9    -0.112882126136E+04   -0.31462E-03   -0.31459E-03  2640   0.269E-02-0.528E-05
CGA:  10    -0.112882148265E+04   -0.22128E-03   -0.22130E-03  2640   0.107E-02 0.320E-05
CGA:  11    -0.112882159708E+04   -0.11443E-03   -0.11444E-03  2640   0.585E-03-0.260E-06
CGA:  12    -0.112882166464E+04   -0.67561E-04   -0.67754E-04  2640   0.554E-03-0.894E-05
CGA:  13    -0.112882170479E+04   -0.40146E-04   -0.39955E-04  2640   0.307E-03-0.863E-05
CGA:  14    -0.112882172894E+04   -0.24153E-04   -0.24091E-04  2640   0.165E-03-0.424E-05
CGA:  15    -0.112882175175E+04   -0.22806E-04   -0.22719E-04  2640   0.142E-03 0.189E-05
CGA:  16    -0.112882176458E+04   -0.12840E-04   -0.12879E-04  2640   0.749E-04 0.604E-05
CGA:  17    -0.112882177196E+04   -0.73796E-05   -0.73872E-05  2640   0.582E-04 0.762E-05
   5 F= -.11288218E+04 E0= -.11287990E+04  d E =-.710597E-02  mag=    20.0000
       N       E                     dE             d eps       ncg     rms          ort
SDA:   1    -0.112852902826E+04    0.29274E+00    0.00000E+00  2640   0.997E+00 0.000E+00
CGA:   2    -0.112867411568E+04   -0.14509E+00   -0.14471E+00  2640   0.983E+00 0.683E-02
CGA:   3    -0.112874412592E+04   -0.70010E-01   -0.69738E-01  2640   0.433E+00-0.856E-03
CGA:   4    -0.112879841966E+04   -0.54294E-01   -0.54120E-01  2640   0.240E+00 0.438E-02
CGA:   5    -0.112881424951E+04   -0.15830E-01   -0.15828E-01  2640   0.890E-01-0.180E-03
CGA:   6    -0.112881951230E+04   -0.52628E-02   -0.52288E-02  2640   0.393E-01-0.566E-04
CGA:   7    -0.112882357797E+04   -0.40657E-02   -0.40659E-02  2640   0.190E-01-0.955E-04
CGA:   8    -0.112882498120E+04   -0.14032E-02   -0.14010E-02  2640   0.607E-02-0.618E-04
CGA:   9    -0.112882556963E+04   -0.58843E-03   -0.58832E-03  2640   0.305E-02 0.227E-04
CGA:  10    -0.112882594971E+04   -0.38008E-03   -0.37917E-03  2640   0.170E-02 0.308E-04
CGA:  11    -0.112882606511E+04   -0.11539E-03   -0.11574E-03  2640   0.112E-02 0.107E-04
CGA:  12    -0.112882617466E+04   -0.10955E-03   -0.10953E-03  2640   0.804E-03 0.661E-05
CGA:  13    -0.112882624374E+04   -0.69077E-04   -0.69091E-04  2640   0.456E-03 0.194E-05
CGA:  14    -0.112882628638E+04   -0.42647E-04   -0.42647E-04  2640   0.274E-03 0.851E-06
CGA:  15    -0.112882632037E+04   -0.33987E-04   -0.33859E-04  2640   0.221E-03 0.432E-05
CGA:  16    -0.112882634619E+04   -0.25819E-04   -0.25703E-04  2640   0.122E-03 0.588E-05
CGA:  17    -0.112882636083E+04   -0.14638E-04   -0.14556E-04  2640   0.787E-04 0.392E-05
CGA:  18    -0.112882636964E+04   -0.88155E-05   -0.87946E-05  2640   0.583E-04 0.184E-05
   6 F= -.11288264E+04 E0= -.11288035E+04  d E =-.459768E-02  mag=    20.0000
       N       E                     dE             d eps       ncg     rms          ort
SDA:   1    -0.112881913987E+04    0.72210E-02    0.00000E+00  2640   0.662E-01 0.000E+00
CGA:   2    -0.112882161344E+04   -0.24736E-02   -0.24851E-02  2640   0.181E-01-0.928E-04
CGA:   3    -0.112882420271E+04   -0.25893E-02   -0.25792E-02  2640   0.134E-01 0.208E-03
CGA:   4    -0.112882538884E+04   -0.11861E-02   -0.11869E-02  2640   0.608E-02 0.827E-04
CGA:   5    -0.112882609650E+04   -0.70766E-03   -0.70806E-03  2640   0.304E-02-0.205E-04
CGA:   6    -0.112882629453E+04   -0.19803E-03   -0.19697E-03  2640   0.964E-03-0.256E-04
CGA:   7    -0.112882636620E+04   -0.71666E-04   -0.71284E-04  2640   0.634E-03-0.188E-04
CGA:   8    -0.112882641816E+04   -0.51964E-04   -0.51788E-04  2640   0.285E-03-0.164E-04
CGA:   9    -0.112882643817E+04   -0.20010E-04   -0.19944E-04  2640   0.941E-04-0.296E-05
CGA:  10    -0.112882644642E+04   -0.82533E-05   -0.82614E-05  2640   0.642E-04 0.224E-05
   7 F= -.11288264E+04 E0= -.11288036E+04  d E =-.467446E-02  mag=    20.0000
       N       E                     dE             d eps       ncg     rms          ort
SDA:   1    -0.112853949013E+04    0.28695E+00    0.00000E+00  2640   0.103E+01 0.000E+00
CGA:   2    -0.112868637497E+04   -0.14688E+00   -0.14672E+00  2640   0.809E+00 0.313E-02
CGA:   3    -0.112874613504E+04   -0.59760E-01   -0.59534E-01  2640   0.434E+00-0.186E-02
CGA:   4    -0.112880584798E+04   -0.59713E-01   -0.59626E-01  2640   0.200E+00 0.168E-02
CGA:   5    -0.112881793249E+04   -0.12085E-01   -0.12070E-01  2640   0.682E-01-0.160E-04
CGA:   6    -0.112882292642E+04   -0.49939E-02   -0.49946E-02  2640   0.386E-01-0.697E-04
CGA:   7    -0.112882592288E+04   -0.29965E-02   -0.29983E-02  2640   0.185E-01-0.217E-04
CGA:   8    -0.112882730474E+04   -0.13819E-02   -0.13806E-02  2640   0.550E-02-0.383E-04
CGA:   9    -0.112882792360E+04   -0.61886E-03   -0.61855E-03  2640   0.315E-02 0.131E-04
CGA:  10    -0.112882825594E+04   -0.33234E-03   -0.33221E-03  2640   0.140E-02 0.124E-04
CGA:  11    -0.112882837634E+04   -0.12040E-03   -0.12047E-03  2640   0.126E-02 0.764E-05
CGA:  12    -0.112882848788E+04   -0.11154E-03   -0.11157E-03  2640   0.735E-03 0.631E-05
CGA:  13    -0.112882854725E+04   -0.59374E-04   -0.59406E-04  2640   0.443E-03 0.269E-05
CGA:  14    -0.112882859414E+04   -0.46886E-04   -0.46854E-04  2640   0.281E-03 0.224E-05
CGA:  15    -0.112882862514E+04   -0.30999E-04   -0.30925E-04  2640   0.219E-03 0.458E-05
CGA:  16    -0.112882864917E+04   -0.24036E-04   -0.23969E-04  2640   0.142E-03 0.475E-05
CGA:  17    -0.112882866452E+04   -0.15350E-04   -0.15315E-04  2640   0.996E-04 0.307E-05
CGA:  18    -0.112882867172E+04   -0.71939E-05   -0.72169E-05  2640   0.708E-04 0.919E-06
   8 F= -.11288287E+04 E0= -.11288060E+04  d E =-.222529E-02  mag=    20.0000
       N       E                     dE             d eps       ncg     rms          ort
SDA:   1    -0.112881402923E+04    0.14635E-01    0.00000E+00  2640   0.638E-01 0.000E+00
CGA:   2    -0.112881928260E+04   -0.52534E-02   -0.52536E-02  2640   0.643E-01-0.555E-04
CGA:   3    -0.112882399127E+04   -0.47087E-02   -0.47046E-02  2640   0.238E-01-0.142E-03
CGA:   4    -0.112882658389E+04   -0.25926E-02   -0.25939E-02  2640   0.193E-01-0.605E-04
CGA:   5    -0.112882819812E+04   -0.16142E-02   -0.16147E-02  2640   0.465E-02 0.259E-04
CGA:   6    -0.112882854174E+04   -0.34363E-03   -0.34400E-03  2640   0.174E-02 0.231E-04
CGA:   7    -0.112882871249E+04   -0.17074E-03   -0.17062E-03  2640   0.123E-02 0.219E-04
CGA:   8    -0.112882879158E+04   -0.79092E-04   -0.79378E-04  2640   0.430E-03 0.106E-04
CGA:   9    -0.112882882533E+04   -0.33752E-04   -0.33774E-04  2640   0.210E-03 0.176E-05
CGA:  10    -0.112882884337E+04   -0.18035E-04   -0.18028E-04  2640   0.122E-03-0.165E-05
CGA:  11    -0.112882885454E+04   -0.11171E-04   -0.11176E-04  2640   0.532E-04-0.242E-05
CGA:  12    -0.112882886023E+04   -0.56928E-05   -0.57209E-05  2640   0.356E-04-0.144E-05
   9 F= -.11288289E+04 E0= -.11288062E+04  d E =-.241381E-02  mag=    20.0000
       N       E                     dE             d eps       ncg     rms          ort
SDA:   1    -0.112867143966E+04    0.15741E+00    0.00000E+00  2640   0.619E+00 0.000E+00
CGA:   2    -0.112873228406E+04   -0.60844E-01   -0.60783E-01  2640   0.748E+00 0.450E-02
CGA:   3    -0.112878123611E+04   -0.48952E-01   -0.48835E-01  2640   0.224E+00-0.985E-03
CGA:   4    -0.112881043983E+04   -0.29204E-01   -0.29251E-01  2640   0.211E+00-0.949E-03
CGA:   5    -0.112882387728E+04   -0.13437E-01   -0.13469E-01  2640   0.425E-01 0.115E-03
CGA:   6    -0.112882733402E+04   -0.34567E-02   -0.34541E-02  2640   0.202E-01-0.326E-04
CGA:   7    -0.112882946839E+04   -0.21344E-02   -0.21323E-02  2640   0.122E-01 0.137E-03
CGA:   8    -0.112883014256E+04   -0.67418E-03   -0.67585E-03  2640   0.390E-02 0.400E-04
CGA:   9    -0.112883046731E+04   -0.32474E-03   -0.32477E-03  2640   0.218E-02 0.652E-05
CGA:  10    -0.112883069053E+04   -0.22323E-03   -0.22328E-03  2640   0.110E-02-0.526E-05
CGA:  11    -0.112883078615E+04   -0.95614E-04   -0.95607E-04  2640   0.580E-03-0.391E-05
CGA:  12    -0.112883084689E+04   -0.60742E-04   -0.60734E-04  2640   0.552E-03 0.448E-06
CGA:  13    -0.112883088750E+04   -0.40609E-04   -0.40658E-04  2640   0.292E-03 0.284E-05
CGA:  14    -0.112883091446E+04   -0.26963E-04   -0.26958E-04  2640   0.154E-03 0.211E-05
CGA:  15    -0.112883093291E+04   -0.18445E-04   -0.18457E-04  2640   0.156E-03-0.409E-06
CGA:  16    -0.112883094934E+04   -0.16437E-04   -0.16470E-04  2640   0.102E-03-0.222E-05
CGA:  17    -0.112883095775E+04   -0.84108E-05   -0.83957E-05  2640   0.673E-04-0.187E-05
  10 F= -.11288310E+04 E0= -.11288083E+04  d E =-.209752E-02  mag=    20.0000
       N       E                     dE             d eps       ncg     rms          ort
SDA:   1    -0.112882376518E+04    0.71842E-02    0.00000E+00  2640   0.696E-01 0.000E+00
CGA:   2    -0.112882642033E+04   -0.26551E-02   -0.26764E-02  2640   0.185E-01-0.462E-03
CGA:   3    -0.112882885249E+04   -0.24322E-02   -0.24406E-02  2640   0.146E-01-0.190E-03
CGA:   4    -0.112882989940E+04   -0.10469E-02   -0.10452E-02  2640   0.732E-02-0.745E-04
CGA:   5    -0.112883066065E+04   -0.76126E-03   -0.76116E-03  2640   0.386E-02 0.330E-05
CGA:   6    -0.112883094905E+04   -0.28839E-03   -0.28873E-03  2640   0.890E-03 0.230E-04
CGA:   7    -0.112883101681E+04   -0.67758E-04   -0.67985E-04  2640   0.626E-03 0.165E-04
CGA:   8    -0.112883106471E+04   -0.47902E-04   -0.48107E-04  2640   0.278E-03 0.150E-04
CGA:   9    -0.112883108747E+04   -0.22766E-04   -0.22821E-04  2640   0.966E-04 0.692E-05
CGA:  10    -0.112883109727E+04   -0.97935E-05   -0.97840E-05  2640   0.607E-04 0.896E-06
  11 F= -.11288311E+04 E0= -.11288085E+04  d E =-.223704E-02  mag=    20.0000
       N       E                     dE             d eps       ncg     rms          ort
SDA:   1    -0.112870756544E+04    0.12352E+00    0.00000E+00  2640   0.464E+00 0.000E+00
CGA:   2    -0.112876694079E+04   -0.59375E-01   -0.59449E-01  2640   0.478E+00-0.159E-02
CGA:   3    -0.112879231225E+04   -0.25371E-01   -0.25430E-01  2640   0.183E+00-0.493E-03
CGA:   4    -0.112881780587E+04   -0.25494E-01   -0.25547E-01  2640   0.155E+00-0.930E-03
CGA:   5    -0.112882764953E+04   -0.98437E-02   -0.98413E-02  2640   0.241E-01-0.941E-05
CGA:   6    -0.112883000598E+04   -0.23564E-02   -0.23559E-02  2640   0.167E-01 0.623E-04
CGA:   7    -0.112883138108E+04   -0.13751E-02   -0.13752E-02  2640   0.764E-02 0.287E-04
CGA:   8    -0.112883182153E+04   -0.44045E-03   -0.44073E-03  2640   0.276E-02 0.905E-05
CGA:   9    -0.112883209362E+04   -0.27209E-03   -0.27212E-03  2640   0.154E-02-0.432E-05
CGA:  10    -0.112883223539E+04   -0.14177E-03   -0.14179E-03  2640   0.806E-03-0.728E-05
CGA:  11    -0.112883229799E+04   -0.62604E-04   -0.62564E-04  2640   0.443E-03-0.397E-05
CGA:  12    -0.112883235040E+04   -0.52405E-04   -0.52476E-04  2640   0.380E-03-0.229E-05
CGA:  13    -0.112883237777E+04   -0.27379E-04   -0.27362E-04  2640   0.230E-03-0.896E-06
CGA:  14    -0.112883239747E+04   -0.19696E-04   -0.19697E-04  2640   0.111E-03 0.302E-06
CGA:  15    -0.112883241447E+04   -0.16999E-04   -0.16881E-04  2640   0.115E-03 0.188E-05
CGA:  16    -0.112883242481E+04   -0.10344E-04   -0.10349E-04  2640   0.644E-04 0.130E-05
CGA:  17    -0.112883243042E+04   -0.56053E-05   -0.56112E-05  2640   0.543E-04 0.918E-06
  12 F= -.11288324E+04 E0= -.11288098E+04  d E =-.133315E-02  mag=    20.0000
       N       E                     dE             d eps       ncg     rms          ort
SDA:   1    -0.112883195700E+04    0.46781E-03    0.00000E+00  2640   0.133E-01 0.000E+00
CGA:   2    -0.112883239293E+04   -0.43593E-03   -0.43475E-03  2640   0.719E-03 0.272E-04
CGA:   3    -0.112883242604E+04   -0.33114E-04   -0.33051E-04  2640   0.896E-04-0.140E-05
CGA:   4    -0.112883243307E+04   -0.70306E-05   -0.70134E-05  2640   0.415E-04-0.217E-05
CGA:   5    -0.112883243843E+04   -0.53523E-05   -0.55499E-05  2640   0.305E-04-0.385E-05
CGA:   6    -0.112883244063E+04   -0.22053E-05   -0.21855E-05  2640   0.139E-04-0.208E-05
  13 F= -.11288324E+04 E0= -.11288098E+04  d E =-.134336E-02  mag=    20.0000
       N       E                     dE             d eps       ncg     rms          ort
SDA:   1    -0.112872575088E+04    0.10669E+00    0.00000E+00  2640   0.372E+00 0.000E+00
CGA:   2    -0.112878511632E+04   -0.59365E-01   -0.59401E-01  2640   0.275E+00-0.484E-03
CGA:   3    -0.112880204233E+04   -0.16926E-01   -0.16939E-01  2640   0.185E+00-0.968E-04
CGA:   4    -0.112882322116E+04   -0.21179E-01   -0.21178E-01  2640   0.107E+00 0.733E-06
CGA:   5    -0.112882937282E+04   -0.61517E-02   -0.61432E-02  2640   0.202E-01 0.667E-04
CGA:   6    -0.112883165026E+04   -0.22774E-02   -0.22751E-02  2640   0.127E-01 0.985E-04
CGA:   7    -0.112883273007E+04   -0.10798E-02   -0.10801E-02  2640   0.476E-02 0.454E-04
CGA:   8    -0.112883300245E+04   -0.27238E-03   -0.27282E-03  2640   0.227E-02 0.730E-05
CGA:   9    -0.112883324287E+04   -0.24042E-03   -0.24040E-03  2640   0.110E-02 0.629E-06
CGA:  10    -0.112883333792E+04   -0.95055E-04   -0.95035E-04  2640   0.578E-03-0.478E-05
CGA:  11    -0.112883338722E+04   -0.49293E-04   -0.49281E-04  2640   0.398E-03-0.311E-05
CGA:  12    -0.112883343119E+04   -0.43971E-04   -0.44000E-04  2640   0.259E-03-0.133E-05
CGA:  13    -0.112883344983E+04   -0.18638E-04   -0.18639E-04  2640   0.167E-03 0.511E-07
CGA:  14    -0.112883346522E+04   -0.15396E-04   -0.15397E-04  2640   0.101E-03-0.356E-06
CGA:  15    -0.112883347921E+04   -0.13993E-04   -0.13997E-04  2640   0.918E-04-0.727E-07
CGA:  16    -0.112883348684E+04   -0.76227E-05   -0.76185E-05  2640   0.492E-04-0.447E-06
  14 F= -.11288335E+04 E0= -.11288108E+04  d E =-.104621E-02  mag=    20.0000
       N       E                     dE             d eps       ncg     rms          ort
SDA:   1    -0.112883034817E+04    0.31310E-02    0.00000E+00  2640   0.517E-01 0.000E+00
CGA:   2    -0.112883198128E+04   -0.16331E-02   -0.16379E-02  2640   0.544E-02-0.145E-03
CGA:   3    -0.112883277820E+04   -0.79692E-03   -0.80056E-03  2640   0.478E-02-0.625E-04
CGA:   4    -0.112883314492E+04   -0.36672E-03   -0.36624E-03  2640   0.218E-02-0.278E-04
CGA:   5    -0.112883341058E+04   -0.26566E-03   -0.26567E-03  2640   0.130E-02-0.551E-06
CGA:   6    -0.112883349276E+04   -0.82181E-04   -0.82337E-04  2640   0.391E-03 0.647E-05
CGA:   7    -0.112883351812E+04   -0.25362E-04   -0.25495E-04  2640   0.178E-03 0.490E-05
CGA:   8    -0.112883353383E+04   -0.15706E-04   -0.15723E-04  2640   0.985E-04 0.514E-05
CGA:   9    -0.112883354190E+04   -0.80727E-05   -0.80997E-05  2640   0.398E-04 0.265E-05
  15 F= -.11288335E+04 E0= -.11288109E+04  d E =-.110127E-02  mag=    20.0000
       N       E                     dE             d eps       ncg     rms          ort
SDA:   1    -0.112876025019E+04    0.73284E-01    0.00000E+00  2640   0.222E+00 0.000E+00
CGA:   2    -0.112880028760E+04   -0.40037E-01   -0.39951E-01  2640   0.238E+00 0.957E-03
CGA:   3    -0.112881451728E+04   -0.14230E-01   -0.14102E-01  2640   0.116E+00 0.360E-03
CGA:   4    -0.112882690669E+04   -0.12389E-01   -0.12391E-01  2640   0.788E-01-0.717E-04
CGA:   5    -0.112883146876E+04   -0.45621E-02   -0.45738E-02  2640   0.166E-01-0.547E-04
CGA:   6    -0.112883295618E+04   -0.14874E-02   -0.14873E-02  2640   0.964E-02-0.147E-04
CGA:   7    -0.112883390099E+04   -0.94481E-03   -0.94468E-03  2640   0.360E-02 0.115E-04
CGA:   8    -0.112883416265E+04   -0.26166E-03   -0.26154E-03  2640   0.141E-02-0.295E-05
CGA:   9    -0.112883428392E+04   -0.12127E-03   -0.12125E-03  2640   0.105E-02-0.459E-05
CGA:  10    -0.112883436611E+04   -0.82188E-04   -0.82134E-04  2640   0.561E-03-0.461E-05
CGA:  11    -0.112883440900E+04   -0.42890E-04   -0.42846E-04  2640   0.233E-03-0.333E-05
CGA:  12    -0.112883444289E+04   -0.33894E-04   -0.34033E-04  2640   0.168E-03-0.241E-05
CGA:  13    -0.112883446039E+04   -0.17493E-04   -0.17486E-04  2640   0.119E-03 0.572E-06
CGA:  14    -0.112883446905E+04   -0.86642E-05   -0.86871E-05  2640   0.773E-04 0.115E-05
  16 F= -.11288345E+04 E0= -.11288118E+04  d E =-.927151E-03  mag=    20.0000
       N       E                     dE             d eps       ncg     rms          ort
SDA:   1    -0.112882414630E+04    0.10314E-01    0.00000E+00  2640   0.855E-01 0.000E+00
CGA:   2    -0.112882758602E+04   -0.34397E-02   -0.34820E-02  2640   0.263E-01-0.634E-03
CGA:   3    -0.112883117511E+04   -0.35891E-02   -0.35902E-02  2640   0.268E-01-0.202E-04
CGA:   4    -0.112883300994E+04   -0.18348E-02   -0.18337E-02  2640   0.915E-02-0.134E-04
CGA:   5    -0.112883401047E+04   -0.10005E-02   -0.10006E-02  2640   0.568E-02-0.421E-05
CGA:   6    -0.112883440311E+04   -0.39264E-03   -0.39241E-03  2640   0.135E-02-0.444E-05
CGA:   7    -0.112883451091E+04   -0.10780E-03   -0.10781E-03  2640   0.765E-03 0.494E-06
CGA:   8    -0.112883457469E+04   -0.63779E-04   -0.63780E-04  2640   0.532E-03-0.930E-08
CGA:   9    -0.112883461094E+04   -0.36245E-04   -0.36225E-04  2640   0.130E-03-0.650E-06
CGA:  10    -0.112883462365E+04   -0.12712E-04   -0.12729E-04  2640   0.918E-04-0.195E-05
CGA:  11    -0.112883463466E+04   -0.11011E-04   -0.11071E-04  2640   0.620E-04-0.185E-05
CGA:  12    -0.112883463920E+04   -0.45407E-05   -0.45281E-05  2640   0.364E-04-0.758E-06
  17 F= -.11288346E+04 E0= -.11288120E+04  d E =-.109730E-02  mag=    20.0000
       N       E                     dE             d eps       ncg     rms          ort
SDA:   1    -0.112879984797E+04    0.34787E-01    0.00000E+00  2640   0.125E+00 0.000E+00
CGA:   2    -0.112881127864E+04   -0.11431E-01   -0.11430E-01  2640   0.165E+00 0.383E-03
CGA:   3    -0.112882460153E+04   -0.13323E-01   -0.13322E-01  2640   0.525E-01-0.497E-04
CGA:   4    -0.112882982610E+04   -0.52246E-02   -0.52267E-02  2640   0.421E-01-0.146E-03
CGA:   5    -0.112883328317E+04   -0.34571E-02   -0.34578E-02  2640   0.771E-02 0.189E-04
CGA:   6    -0.112883393747E+04   -0.65430E-03   -0.65418E-03  2640   0.477E-02-0.629E-05
CGA:   7    -0.112883439485E+04   -0.45738E-03   -0.45734E-03  2640   0.241E-02 0.506E-05
CGA:   8    -0.112883453492E+04   -0.14007E-03   -0.13994E-03  2640   0.732E-03-0.640E-06
CGA:   9    -0.112883459712E+04   -0.62204E-04   -0.62192E-04  2640   0.552E-03-0.324E-05
CGA:  10    -0.112883464495E+04   -0.47823E-04   -0.47817E-04  2640   0.241E-03-0.401E-05
CGA:  11    -0.112883466893E+04   -0.23985E-04   -0.24018E-04  2640   0.119E-03-0.269E-05
CGA:  12    -0.112883468325E+04   -0.14317E-04   -0.14349E-04  2640   0.121E-03-0.946E-06
CGA:  13    -0.112883469327E+04   -0.10021E-04   -0.10021E-04  2640   0.653E-04 0.130E-06
CGA:  14    -0.112883469779E+04   -0.45171E-05   -0.45338E-05  2640   0.433E-04 0.809E-06
  18 F= -.11288347E+04 E0= -.11288121E+04  d E =-.115589E-02  mag=    20.0000
       N       E                     dE             d eps       ncg     rms          ort
SDA:   1    -0.112882960973E+04    0.50835E-02    0.00000E+00  2640   0.222E-01 0.000E+00
CGA:   2    -0.112883128494E+04   -0.16752E-02   -0.16767E-02  2640   0.187E-01 0.266E-04
CGA:   3    -0.112883304539E+04   -0.17605E-02   -0.17605E-02  2640   0.117E-01-0.181E-05
CGA:   4    -0.112883390293E+04   -0.85754E-03   -0.85767E-03  2640   0.569E-02 0.143E-04
CGA:   5    -0.112883438656E+04   -0.48363E-03   -0.48373E-03  2640   0.273E-02 0.144E-04
CGA:   6    -0.112883460308E+04   -0.21652E-03   -0.21655E-03  2640   0.736E-03 0.315E-05
CGA:   7    -0.112883466812E+04   -0.65041E-04   -0.65041E-04  2640   0.385E-03-0.252E-06
CGA:   8    -0.112883470356E+04   -0.35442E-04   -0.35444E-04  2640   0.186E-03-0.365E-06
CGA:   9    -0.112883471586E+04   -0.12293E-04   -0.12302E-04  2640   0.751E-04 0.404E-06
CGA:  10    -0.112883472081E+04   -0.49573E-05   -0.49722E-05  2640   0.365E-04 0.644E-06
  19 F= -.11288347E+04 E0= -.11288121E+04  d E =-.117891E-02  mag=    20.0000
       N       E                     dE             d eps       ncg     rms          ort
SDA:   1    -0.112878132243E+04    0.53393E-01    0.00000E+00  2640   0.164E+00 0.000E+00
CGA:   2    -0.112881166268E+04   -0.30340E-01   -0.30383E-01  2640   0.141E+00-0.443E-03
CGA:   3    -0.112882285133E+04   -0.11189E-01   -0.11203E-01  2640   0.759E-01 0.279E-03
CGA:   4    -0.112883100062E+04   -0.81493E-02   -0.81538E-02  2640   0.460E-01-0.212E-03
CGA:   5    -0.112883338195E+04   -0.23813E-02   -0.23881E-02  2640   0.121E-01-0.382E-04
CGA:   6    -0.112883434743E+04   -0.96547E-03   -0.96586E-03  2640   0.693E-02 0.285E-04
CGA:   7    -0.112883501668E+04   -0.66926E-03   -0.66919E-03  2640   0.251E-02 0.171E-04
CGA:   8    -0.112883519310E+04   -0.17641E-03   -0.17649E-03  2640   0.945E-03 0.190E-05
CGA:   9    -0.112883529227E+04   -0.99174E-04   -0.99241E-04  2640   0.592E-03-0.421E-05
CGA:  10    -0.112883534527E+04   -0.53001E-04   -0.52997E-04  2640   0.352E-03-0.484E-05
CGA:  11    -0.112883536912E+04   -0.23843E-04   -0.23796E-04  2640   0.190E-03-0.220E-05
CGA:  12    -0.112883538731E+04   -0.18192E-04   -0.18190E-04  2640   0.143E-03 0.378E-06
CGA:  13    -0.112883540176E+04   -0.14452E-04   -0.14438E-04  2640   0.608E-04 0.124E-05
CGA:  14    -0.112883540914E+04   -0.73795E-05   -0.73570E-05  2640   0.446E-04 0.765E-06
  20 F= -.11288354E+04 E0= -.11288128E+04  d E =-.688324E-03  mag=    20.0000
       N       E                     dE             d eps       ncg     rms          ort
SDA:   1    -0.112882152111E+04    0.13881E-01    0.00000E+00  2640   0.100E+00 0.000E+00
CGA:   2    -0.112882561123E+04   -0.40901E-02   -0.41260E-02  2640   0.384E-01-0.573E-03
CGA:   3    -0.112883191168E+04   -0.63004E-02   -0.63070E-02  2640   0.215E-01-0.887E-04
CGA:   4    -0.112883356748E+04   -0.16558E-02   -0.16542E-02  2640   0.153E-01-0.384E-04
CGA:   5    -0.112883507407E+04   -0.15066E-02   -0.15066E-02  2640   0.368E-02-0.155E-05
CGA:   6    -0.112883537161E+04   -0.29754E-03   -0.29761E-03  2640   0.183E-02 0.803E-05
CGA:   7    -0.112883549997E+04   -0.12837E-03   -0.12854E-03  2640   0.109E-02 0.764E-05
CGA:   8    -0.112883559108E+04   -0.91109E-04   -0.91152E-04  2640   0.403E-03 0.453E-05
CGA:   9    -0.112883561916E+04   -0.28080E-04   -0.28087E-04  2640   0.143E-03 0.433E-06
CGA:  10    -0.112883563772E+04   -0.18551E-04   -0.18649E-04  2640   0.131E-03-0.252E-05
CGA:  11    -0.112883564850E+04   -0.10786E-04   -0.10767E-04  2640   0.584E-04-0.202E-05
CGA:  12    -0.112883565276E+04   -0.42617E-05   -0.42531E-05  2640   0.489E-04-0.470E-06
  21 F= -.11288357E+04 E0= -.11288131E+04  d E =-.931948E-03  mag=    20.0000
       N       E                     dE             d eps       ncg     rms          ort
SDA:   1    -0.112878640740E+04    0.49241E-01    0.00000E+00  2640   0.160E+00 0.000E+00
CGA:   2    -0.112880854694E+04   -0.22140E-01   -0.22101E-01  2640   0.212E+00 0.674E-03
CGA:   3    -0.112882244314E+04   -0.13896E-01   -0.13830E-01  2640   0.708E-01-0.159E-03
CGA:   4    -0.112882949286E+04   -0.70497E-02   -0.70519E-02  2640   0.663E-01-0.231E-03
CGA:   5    -0.112883375214E+04   -0.42593E-02   -0.42679E-02  2640   0.137E-01 0.144E-05
CGA:   6    -0.112883480090E+04   -0.10488E-02   -0.10485E-02  2640   0.631E-02 0.113E-04
CGA:   7    -0.112883554005E+04   -0.73915E-03   -0.73833E-03  2640   0.258E-02 0.305E-04
CGA:   8    -0.112883573359E+04   -0.19355E-03   -0.19356E-03  2640   0.105E-02 0.291E-05
CGA:   9    -0.112883581234E+04   -0.78747E-04   -0.78706E-04  2640   0.743E-03-0.249E-05
CGA:  10    -0.112883587643E+04   -0.64086E-04   -0.64065E-04  2640   0.370E-03-0.427E-05
CGA:  11    -0.112883591039E+04   -0.33961E-04   -0.33965E-04  2640   0.169E-03-0.298E-05
CGA:  12    -0.112883592989E+04   -0.19505E-04   -0.19504E-04  2640   0.177E-03 0.334E-07
CGA:  13    -0.112883594613E+04   -0.16241E-04   -0.16242E-04  2640   0.768E-04 0.135E-05
CGA:  14    -0.112883595357E+04   -0.74381E-05   -0.74362E-05  2640   0.771E-04 0.565E-06
  22 F= -.11288360E+04 E0= -.11288134E+04  d E =-.123276E-02  mag=    20.0000
       N       E                     dE             d eps       ncg     rms          ort
SDA:   1    -0.112880713305E+04    0.28813E-01    0.00000E+00  2640   0.139E+00 0.000E+00
CGA:   2    -0.112881589333E+04   -0.87603E-02   -0.87884E-02  2640   0.117E+00-0.973E-04
CGA:   3    -0.112882779543E+04   -0.11902E-01   -0.11908E-01  2640   0.466E-01-0.446E-03
CGA:   4    -0.112883208429E+04   -0.42889E-02   -0.42891E-02  2640   0.355E-01-0.214E-03
CGA:   5    -0.112883508673E+04   -0.30024E-02   -0.30030E-02  2640   0.116E-01 0.431E-04
CGA:   6    -0.112883595491E+04   -0.86819E-03   -0.86833E-03  2640   0.353E-02 0.328E-04
CGA:   7    -0.112883631649E+04   -0.36158E-03   -0.36113E-03  2640   0.270E-02 0.391E-04
CGA:   8    -0.112883649442E+04   -0.17793E-03   -0.17841E-03  2640   0.103E-02 0.181E-04
CGA:   9    -0.112883656236E+04   -0.67938E-04   -0.67999E-04  2640   0.348E-03 0.283E-05
CGA:  10    -0.112883660786E+04   -0.45504E-04   -0.45699E-04  2640   0.254E-03-0.461E-05
CGA:  11    -0.112883663070E+04   -0.22838E-04   -0.22839E-04  2640   0.133E-03-0.130E-05
CGA:  12    -0.112883664195E+04   -0.11247E-04   -0.11252E-04  2640   0.108E-03 0.893E-06
CGA:  13    -0.112883665192E+04   -0.99738E-05   -0.99703E-05  2640   0.776E-04 0.215E-05
  23 F= -.11288367E+04 E0= -.11288141E+04  d E =-.698347E-03  mag=    20.0000
