       N       E                     dE             d eps       ncg     rms          ort
DAV:   1     0.140262016731E+05    0.14026E+05   -0.41193E+05  2016   0.175E+03
DAV:   2     0.191195551756E+04   -0.12114E+05   -0.11845E+05  2016   0.567E+02
DAV:   3    -0.760036858414E+03   -0.26720E+04   -0.25468E+04  2016   0.252E+02
DAV:   4    -0.109708842633E+04   -0.33705E+03   -0.33251E+03  2016   0.117E+02
DAV:   5    -0.111335880330E+04   -0.16270E+02   -0.15767E+02  2016   0.315E+01
SDA:   6    -0.226117598915E+03    0.88724E+03   -0.15767E+02  2016   0.466E+04 0.000E+00
CGA:   7    -0.659284035559E+03   -0.43317E+03   -0.49225E+03  2016   0.346E+04-0.202E+03
CGA:   8    -0.647221326749E+03    0.12063E+02   -0.17596E+03  2016   0.370E+04-0.167E+04
CGA:   9    -0.693055327795E+03   -0.45834E+02   -0.77591E+02  2016   0.278E+04-0.360E+04
CGA:  10    -0.642624137157E+03    0.50431E+02   -0.20946E+03  2016   0.515E+04-0.211E+04
CGA:  11    -0.610941364937E+03    0.31683E+02   -0.39816E+03  2016   0.123E+04-0.802E+03
CGA:  12    -0.734614346817E+03   -0.12367E+03   -0.63619E+02  2016   0.101E+04-0.128E+04
CGA:  13    -0.675089105698E+03    0.59525E+02   -0.44900E+02  2016   0.125E+04-0.896E+03
CGA:  14    -0.641886763128E+03    0.33202E+02   -0.61723E+02  2016   0.103E+04-0.848E+03
CGA:  15    -0.669084882151E+03   -0.27198E+02   -0.48833E+02  2016   0.127E+04-0.108E+04
CGA:  16    -0.654696371192E+03    0.14389E+02   -0.61008E+02  2016   0.104E+04-0.951E+03
CGA:  17    -0.678402152580E+03   -0.23706E+02   -0.47335E+02  2016   0.930E+03-0.911E+03
CGA:  18    -0.687634721197E+03   -0.92326E+01   -0.37829E+02  2016   0.386E+04-0.405E+04
CGA:  19    -0.654323098117E+03    0.33312E+02   -0.22200E+03  2016   0.105E+04-0.766E+03
CGA:  20    -0.734847016160E+03   -0.80524E+02   -0.41039E+02  2016   0.533E+04-0.671E+04
CGA:  21    -0.658192252137E+03    0.76655E+02   -0.29478E+03  2016   0.909E+03-0.650E+03
CGA:  22    -0.745352683448E+03   -0.87160E+02   -0.34161E+02  2016   0.455E+04-0.612E+04
CGA:  23    -0.660358173735E+03    0.84995E+02   -0.23030E+03  2016   0.974E+03-0.642E+03
CGA:  24    -0.705496393689E+03   -0.45138E+02   -0.35573E+02  2016   0.338E+04-0.345E+04
CGA:  25    -0.663867072582E+03    0.41629E+02   -0.15714E+03  2016   0.849E+03-0.654E+03
CGA:  26    -0.709160479580E+03   -0.45293E+02   -0.28463E+02  2016   0.294E+04-0.308E+04
CGA:  27    -0.657762402664E+03    0.51398E+02   -0.12403E+03  2016   0.105E+04-0.732E+03
CGA:  28    -0.705300554938E+03   -0.47538E+02   -0.36291E+02  2016   0.668E+03-0.605E+03
CGA:  29    -0.725274415776E+03   -0.19974E+02   -0.16759E+02  2016   0.545E+04-0.619E+04
CGA:  30    -0.688356989939E+03    0.36917E+02   -0.23520E+03  2016   0.684E+03-0.574E+03
CGA:  31    -0.837339732529E+03   -0.14898E+03   -0.16082E+02  2016   0.832E+03 0.196E+04
CGA:  32    -0.841275443917E+03   -0.39357E+01   -0.22842E+02  2016   0.166E+04-0.983E+03
CGA:  33    -0.782791424370E+03    0.58484E+02   -0.51247E+02  2016   0.607E+04-0.165E+04
CGA:  34    -0.679986603645E+03    0.10280E+03   -0.21871E+03  2016   0.803E+03-0.535E+03
CGA:  35    -0.705929879671E+03   -0.25943E+02   -0.21922E+02  2016   0.625E+03-0.635E+03
CGA:  36    -0.767928967345E+03   -0.61999E+02   -0.12410E+02  2016   0.629E+04-0.823E+04
CGA:  37    -0.697581902398E+03    0.70347E+02   -0.21183E+03  2016   0.641E+03-0.487E+03
CGA:  38    -0.845091968665E+03   -0.14751E+03   -0.12478E+02  2016   0.218E+04-0.617E+04
CGA:  39    -0.790345568976E+03    0.54746E+02   -0.51367E+02  2016   0.735E+04-0.330E+04
CGA:  40    -0.688749016936E+03    0.10160E+03   -0.22057E+03  2016   0.764E+03-0.473E+03
CGA:  41    -0.708624477968E+03   -0.19875E+02   -0.17434E+02  2016   0.117E+04-0.119E+04
CGA:  42    -0.697804444051E+03    0.10820E+02   -0.25226E+02  2016   0.326E+04-0.310E+04
CGA:  43    -0.698883337180E+03   -0.10789E+01   -0.91554E+02  2016   0.623E+03-0.621E+03
CGA:  44    -0.851091471190E+03   -0.15221E+03   -0.96936E+01  2016   0.166E+04-0.527E+04
CGA:  45    -0.833769999816E+03    0.17321E+02   -0.27328E+02  2016   0.506E+04-0.282E+04
CGA:  46    -0.759035388395E+03    0.74735E+02   -0.11283E+03  2016   0.690E+04-0.341E+04
CGA:  47    -0.700951009610E+03    0.58084E+02   -0.16847E+03  2016   0.646E+03-0.516E+03
CGA:  48    -0.811474404894E+03   -0.11052E+03   -0.99888E+01  2016   0.545E+04-0.949E+04
CGA:  49    -0.716099545020E+03    0.95375E+02   -0.11361E+03  2016   0.578E+04-0.338E+04
CGA:  50    -0.697307509150E+03    0.18792E+02   -0.13147E+03  2016   0.737E+03-0.637E+03
CGA:  51    -0.786730091706E+03   -0.89423E+02   -0.12091E+02  2016   0.920E+04-0.131E+05
CGA:  52    -0.704669139819E+03    0.82061E+02   -0.19063E+03  2016   0.431E+04-0.295E+04
CGA:  53    -0.710936007152E+03   -0.62669E+01   -0.62932E+02  2016   0.174E+04-0.140E+04
CGA:  54    -0.712750877924E+03   -0.18149E+01   -0.19389E+02  2016   0.703E+04-0.549E+04
CGA:  55    -0.700060741193E+03    0.12690E+02   -0.14167E+03  2016   0.619E+03-0.582E+03
CGA:  56    -0.859143304242E+03   -0.15908E+03   -0.82418E+01  2016   0.107E+04 0.404E+04
CGA:  57    -0.854753954757E+03    0.43893E+01   -0.11969E+02  2016   0.278E+04-0.152E+04
CGA:  58    -0.824003638342E+03    0.30750E+02   -0.32287E+02  2016   0.906E+04-0.398E+04
CGA:  59    -0.705849504135E+03    0.11815E+03   -0.14236E+03  2016   0.197E+04-0.974E+03
CGA:  60    -0.706784366900E+03   -0.93486E+00   -0.27373E+02  2016   0.653E+03-0.575E+03
CGA:  61    -0.844443064587E+03   -0.13766E+03   -0.50950E+01  2016   0.605E+04-0.138E+05
CGA:  62    -0.756114949574E+03    0.88328E+02   -0.77128E+02  2016   0.139E+05-0.596E+04
CGA:  63    -0.703372410485E+03    0.52743E+02   -0.21474E+03  2016   0.727E+03-0.552E+03
CGA:  64    -0.790828084489E+03   -0.87456E+02   -0.84549E+01  2016   0.137E+05-0.197E+05
CGA:  65    -0.707059842989E+03    0.83768E+02   -0.19196E+03  2016   0.925E+03-0.624E+03
CGA:  66    -0.744984156408E+03   -0.37924E+02   -0.99627E+01  2016   0.125E+05-0.138E+05
CGA:  67    -0.706002829241E+03    0.38981E+02   -0.17159E+03  2016   0.715E+03-0.593E+03
CGA:  68    -0.807651546601E+03   -0.10165E+03   -0.71597E+01  2016   0.120E+05-0.193E+05
CGA:  69    -0.724715508390E+03    0.82936E+02   -0.14253E+03  2016   0.918E+04-0.585E+04
CGA:  70    -0.842261544853E+03   -0.11755E+03   -0.58719E+02  2016   0.667E+04-0.853E+04
CGA:  71    -0.807277756463E+03    0.34984E+02   -0.62970E+02  2016   0.119E+05-0.750E+04
CGA:  72    -0.735581814583E+03    0.71696E+02   -0.12887E+03  2016   0.118E+05-0.782E+04
CGA:  73    -0.711425703483E+03    0.24156E+02   -0.13650E+03  2016   0.332E+04-0.294E+04
CGA:  74    -0.796890639508E+03   -0.85465E+02   -0.27616E+02  2016   0.152E+05-0.179E+05
CGA:  75    -0.734531784527E+03    0.62359E+02   -0.15641E+03  2016   0.105E+05-0.750E+04
CGA:  76    -0.866147014366E+03   -0.13162E+03   -0.54516E+02  2016   0.196E+03-0.134E+04
CGA:  77    -0.866825242508E+03   -0.67823E+00   -0.76140E+00  2016   0.121E+02-0.175E+02
CGA:  78    -0.866907272678E+03   -0.82030E-01   -0.84183E-01  2016   0.638E+01-0.213E+00
CGA:  79    -0.867060718431E+03   -0.15345E+00   -0.15077E+00  2016   0.205E+02 0.496E+00
CGA:  80    -0.867644572041E+03   -0.58385E+00   -0.57406E+00  2016   0.334E+02 0.136E+01
CGA:  81    -0.868228581874E+03   -0.58401E+00   -0.64199E+00  2016   0.300E+01 0.733E+01
CGA:  82    -0.868319037645E+03   -0.90456E-01   -0.89539E-01  2016   0.166E+01 0.162E+00
CGA:  83    -0.868445850848E+03   -0.12681E+00   -0.11456E+00  2016   0.400E+01 0.313E+00
CGA:  84    -0.868667360503E+03   -0.22151E+00   -0.19178E+00  2016   0.245E+01 0.147E+01
CGA:  85    -0.868762039468E+03   -0.94679E-01   -0.92718E-01  2016   0.125E+01 0.343E+00
CGA:  86    -0.868834961474E+03   -0.72922E-01   -0.68705E-01  2016   0.149E+01 0.170E+00
CGA:  87    -0.868949810774E+03   -0.11485E+00   -0.10492E+00  2016   0.942E+00 0.282E+00
CGA:  88    -0.868995872412E+03   -0.46062E-01   -0.45007E-01  2016   0.539E+00 0.656E-01
CGA:  89    -0.869037290099E+03   -0.41418E-01   -0.38338E-01  2016   0.492E+00 0.843E-01
CGA:  90    -0.869077902573E+03   -0.40612E-01   -0.38900E-01  2016   0.431E+00 0.457E-01
CGA:  91    -0.869109949713E+03   -0.32047E-01   -0.30104E-01  2016   0.280E+00 0.597E-01
CGA:  92    -0.869131791038E+03   -0.21841E-01   -0.21265E-01  2016   0.220E+00 0.171E-01
CGA:  93    -0.869153598054E+03   -0.21807E-01   -0.20638E-01  2016   0.154E+00 0.241E-01
CGA:  94    -0.869164949732E+03   -0.11352E-01   -0.11303E-01  2016   0.117E+00 0.147E-02
CGA:  95    -0.869176310016E+03   -0.11360E-01   -0.10964E-01  2016   0.834E-01 0.801E-02
CGA:  96    -0.869182490807E+03   -0.61808E-02   -0.62125E-02  2016   0.598E-01-0.114E-02
CGA:  97    -0.869186634171E+03   -0.41434E-02   -0.41586E-02  2016   0.477E-01-0.572E-03
CGA:  98    -0.869190262384E+03   -0.36282E-02   -0.36312E-02  2016   0.359E-01-0.134E-03
CGA:  99    -0.869192833634E+03   -0.25712E-02   -0.25881E-02  2016   0.232E-01-0.588E-03
CGA: 100    -0.869194763737E+03   -0.19301E-02   -0.19158E-02  2016   0.167E-01 0.364E-03
CGA: 101    -0.869196267889E+03   -0.15042E-02   -0.15050E-02  2016   0.157E-01-0.120E-04
CGA: 102    -0.869197365598E+03   -0.10977E-02   -0.10950E-02  2016   0.120E-01 0.150E-03
CGA: 103    -0.869198262542E+03   -0.89694E-03   -0.89342E-03  2016   0.873E-02 0.167E-03
CGA: 104    -0.869198931267E+03   -0.66873E-03   -0.66629E-03  2016   0.604E-02 0.128E-03
SDA: 105    -0.869199479418E+03   -0.54815E-03   -0.54193E-03  2016   0.467E-02 0.182E-03
CGA: 106    -0.869199625518E+03   -0.14610E-03   -0.14590E-03  2016   0.130E-02 0.991E-05
CGA: 107    -0.869199850767E+03   -0.22525E-03   -0.22060E-03  2016   0.439E-02 0.410E-04
CGA: 108    -0.869200322528E+03   -0.47176E-03   -0.46795E-03  2016   0.375E-02 0.874E-04
CGA: 109    -0.869200551406E+03   -0.22888E-03   -0.22897E-03  2016   0.174E-02 0.449E-04
CGA: 110    -0.869200741846E+03   -0.19044E-03   -0.18738E-03  2016   0.903E-03 0.693E-04
CGA: 111    -0.869200839264E+03   -0.97418E-04   -0.95787E-04  2016   0.808E-03 0.440E-04
CGA: 112    -0.869200917297E+03   -0.78032E-04   -0.76968E-04  2016   0.917E-03 0.436E-04
CGA: 113    -0.869201032854E+03   -0.11556E-03   -0.11288E-03  2016   0.729E-03 0.553E-04
CGA: 114    -0.869201092222E+03   -0.59368E-04   -0.59259E-04  2016   0.648E-03 0.166E-04
CGA: 115    -0.869201143988E+03   -0.51766E-04   -0.51767E-04  2016   0.775E-03-0.334E-06
CGA: 116    -0.869201210192E+03   -0.66204E-04   -0.66482E-04  2016   0.465E-03-0.186E-04
CGA: 117    -0.869201255478E+03   -0.45286E-04   -0.46125E-04  2016   0.512E-03-0.283E-04
CGA: 118    -0.869201301192E+03   -0.45714E-04   -0.46628E-04  2016   0.532E-03-0.379E-04
CGA: 119    -0.869201335361E+03   -0.34169E-04   -0.34034E-04  2016   0.160E-03-0.259E-04
CGA: 120    -0.869201361440E+03   -0.26079E-04   -0.27601E-04  2016   0.380E-03-0.143E-04
CGA: 121    -0.869201382745E+03   -0.21305E-04   -0.21167E-04  2016   0.241E-03-0.762E-05
CGA: 122    -0.869201397864E+03   -0.15119E-04   -0.15085E-04  2016   0.147E-03-0.254E-05
CGA: 123    -0.869201422923E+03   -0.25059E-04   -0.25028E-04  2016   0.243E-03 0.262E-06
CGA: 124    -0.869201439032E+03   -0.16109E-04   -0.16121E-04  2016   0.110E-03 0.571E-06
CGA: 125    -0.869201449390E+03   -0.10358E-04   -0.10362E-04  2016   0.109E-03-0.335E-06
CGA: 126    -0.869201461951E+03   -0.12561E-04   -0.12631E-04  2016   0.184E-03-0.216E-05
CGA: 127    -0.869201473153E+03   -0.11202E-04   -0.11139E-04  2016   0.101E-03-0.287E-05
CGA: 128    -0.869201481113E+03   -0.79597E-05   -0.79545E-05  2016   0.860E-04-0.164E-05
   1 F= -.86920148E+03 E0= -.86918093E+03  d E =-.869201E+03  mag=    14.0000
       N       E                     dE             d eps       ncg     rms          ort
SDA:   1    -0.869194476094E+03    0.69971E-02    0.00000E+00  2016   0.144E+00 0.000E+00
CGA:   2    -0.869198713819E+03   -0.42377E-02   -0.45564E-02  2016   0.166E-01-0.674E-02
CGA:   3    -0.869199846463E+03   -0.11326E-02   -0.11304E-02  2016   0.960E-02-0.759E-04
CGA:   4    -0.869200641139E+03   -0.79468E-03   -0.79462E-03  2016   0.767E-02 0.131E-04
CGA:   5    -0.869201070139E+03   -0.42900E-03   -0.42901E-03  2016   0.416E-02-0.297E-05
CGA:   6    -0.869201335996E+03   -0.26586E-03   -0.26563E-03  2016   0.243E-02-0.658E-05
CGA:   7    -0.869201521319E+03   -0.18532E-03   -0.18533E-03  2016   0.118E-02-0.631E-06
CGA:   8    -0.869201600500E+03   -0.79181E-04   -0.79116E-04  2016   0.483E-03-0.366E-05
CGA:   9    -0.869201635262E+03   -0.34762E-04   -0.34757E-04  2016   0.279E-03-0.995E-06
CGA:  10    -0.869201654586E+03   -0.19323E-04   -0.19316E-04  2016   0.169E-03-0.699E-06
CGA:  11    -0.869201665244E+03   -0.10658E-04   -0.10659E-04  2016   0.114E-03-0.100E-07
CGA:  12    -0.869201672951E+03   -0.77072E-05   -0.77096E-05  2016   0.727E-04 0.270E-06
   2 F= -.86920167E+03 E0= -.86918112E+03  d E =-.191838E-03  mag=    14.0000
