       N       E                     dE             d eps       ncg     rms           ort
DAV:   1     0.118666630791E+05    0.11867E+05   -0.45839E+05  2176   0.170E+03  
DAV:   2     0.915328477220E+03   -0.10951E+05   -0.10541E+05  2176   0.531E+02  
DAV:   3    -0.829895110988E+03   -0.17452E+04   -0.16862E+04  2176   0.194E+02  
DAV:   4    -0.969161891605E+03   -0.13927E+03   -0.13303E+03  2176   0.562E+01  
DAV:   5    -0.979345531385E+03   -0.10184E+02   -0.97746E+01  2176   0.128E+01  
SDA:   6     0.141083675674E+02    0.99345E+03   -0.97746E+01  2176   0.910E+04   0.000E+00
CGA:   7    -0.518878203984E+03   -0.53299E+03   -0.85560E+03  2176   0.109E+05  -0.170E+04
CGA:   8    -0.692039755556E+03   -0.17316E+03   -0.17315E+03  2176   0.135E+04   0.669E+02
CGA:   9    -0.721143833870E+03   -0.29104E+02   -0.29182E+02  2176   0.727E+03  -0.735E+01
CGA:  10    -0.739482369674E+03   -0.18339E+02   -0.18361E+02  2176   0.857E+03   0.409E+01
CGA:  11    -0.762764066429E+03   -0.23282E+02   -0.23311E+02  2176   0.789E+03   0.180E-01
CGA:  12    -0.779719118081E+03   -0.16955E+02   -0.16966E+02  2176   0.385E+03  -0.115E+01
CGA:  13    -0.785356625034E+03   -0.56375E+01   -0.56309E+01  2176   0.155E+03  -0.164E+01
CGA:  14    -0.788669930222E+03   -0.33133E+01   -0.33223E+01  2176   0.102E+03  -0.104E+01
CGA:  15    -0.791410473289E+03   -0.27405E+01   -0.27383E+01  2176   0.154E+03  -0.196E+00
CGA:  16    -0.795589332419E+03   -0.41789E+01   -0.41826E+01  2176   0.204E+03   0.272E+00
CGA:  17    -0.799342369285E+03   -0.37530E+01   -0.37525E+01  2176   0.154E+03   0.180E-01
CGA:  18    -0.802420805996E+03   -0.30784E+01   -0.30793E+01  2176   0.105E+03   0.170E+00
CGA:  19    -0.804144657723E+03   -0.17239E+01   -0.17172E+01  2176   0.269E+02  -0.144E+00
CGA:  20    -0.804653537025E+03   -0.50888E+00   -0.50858E+00  2176   0.185E+02  -0.588E-01
CGA:  21    -0.805251829406E+03   -0.59829E+00   -0.60838E+00  2176   0.257E+02  -0.104E+00
CGA:  22    -0.805964590663E+03   -0.71276E+00   -0.71780E+00  2176   0.241E+02  -0.150E+00
CGA:  23    -0.806651212325E+03   -0.68662E+00   -0.71215E+00  2176   0.175E+02  -0.434E+00
CGA:  24    -0.806972539779E+03   -0.32133E+00   -0.31492E+00  2176   0.739E+01   0.167E+00
CGA:  25    -0.807185392667E+03   -0.21285E+00   -0.21145E+00  2176   0.786E+01  -0.236E-02
CGA:  26    -0.807395003258E+03   -0.20961E+00   -0.20345E+00  2176   0.591E+01   0.774E-01
CGA:  27    -0.807584597669E+03   -0.18959E+00   -0.18900E+00  2176   0.966E+01  -0.193E-01
CGA:  28    -0.807862402215E+03   -0.27780E+00   -0.27676E+00  2176   0.570E+01  -0.144E-03
CGA:  29    -0.807959389733E+03   -0.96988E-01   -0.10042E+00  2176   0.273E+01  -0.116E+00
CGA:  30    -0.808041180859E+03   -0.81791E-01   -0.81853E-01  2176   0.302E+01   0.593E-02
CGA:  31    -0.808126436128E+03   -0.85255E-01   -0.85237E-01  2176   0.310E+01   0.305E-02
CGA:  32    -0.808249898788E+03   -0.12346E+00   -0.12340E+00  2176   0.434E+01   0.237E-01
CGA:  33    -0.808357946241E+03   -0.10805E+00   -0.10699E+00  2176   0.315E+01  -0.124E-01
CGA:  34    -0.808444945026E+03   -0.86999E-01   -0.87073E-01  2176   0.212E+01  -0.158E-01
CGA:  35    -0.808484845792E+03   -0.39901E-01   -0.39949E-01  2176   0.975E+00  -0.168E-01
CGA:  36    -0.808520226290E+03   -0.35380E-01   -0.35383E-01  2176   0.159E+01  -0.432E-02
CGA:  37    -0.808568584572E+03   -0.48358E-01   -0.48331E-01  2176   0.139E+01  -0.452E-02
CGA:  38    -0.808611897256E+03   -0.43313E-01   -0.43345E-01  2176   0.148E+01   0.847E-02
CGA:  39    -0.808647560781E+03   -0.35664E-01   -0.35637E-01  2176   0.632E+00   0.114E-01
CGA:  40    -0.808661582705E+03   -0.14022E-01   -0.14075E-01  2176   0.448E+00   0.663E-02
CGA:  41    -0.808676205281E+03   -0.14623E-01   -0.14618E-01  2176   0.433E+00   0.940E-02
CGA:  42    -0.808689595616E+03   -0.13390E-01   -0.13407E-01  2176   0.483E+00   0.825E-02
CGA:  43    -0.808705859797E+03   -0.16264E-01   -0.16255E-01  2176   0.376E+00   0.724E-02
CGA:  44    -0.808714652661E+03   -0.87929E-02   -0.88240E-02  2176   0.248E+00   0.376E-02
CGA:  45    -0.808722182745E+03   -0.75301E-02   -0.75334E-02  2176   0.176E+00   0.333E-02
CGA:  46    -0.808726556767E+03   -0.43740E-02   -0.43918E-02  2176   0.140E+00   0.206E-02
SDA:  47    -0.808732405982E+03   -0.58492E-02   -0.58193E-02  2176   0.197E+00   0.270E-02
CGA:  48    -0.808737216225E+03   -0.48102E-02   -0.48075E-02  2176   0.683E-01  -0.978E-04
CGA:  49    -0.808741220587E+03   -0.40044E-02   -0.40044E-02  2176   0.676E-01  -0.187E-05
CGA:  50    -0.808744294195E+03   -0.30736E-02   -0.30739E-02  2176   0.709E-01  -0.191E-04
CGA:  51    -0.808748981649E+03   -0.46875E-02   -0.46756E-02  2176   0.816E-01   0.355E-03
CGA:  52    -0.808751710275E+03   -0.27286E-02   -0.27290E-02  2176   0.459E-01   0.510E-04
CGA:  53    -0.808753794692E+03   -0.20844E-02   -0.20793E-02  2176   0.256E-01   0.458E-03
CGA:  54    -0.808755714168E+03   -0.19195E-02   -0.19142E-02  2176   0.233E-01   0.146E-03
CGA:  55    -0.808757380239E+03   -0.16661E-02   -0.16679E-02  2176   0.174E-01  -0.475E-04
CGA:  56    -0.808758149865E+03   -0.76963E-03   -0.76961E-03  2176   0.194E-01  -0.395E-04
CGA:  57    -0.808758972421E+03   -0.82256E-03   -0.82227E-03  2176   0.152E-01  -0.127E-03
CGA:  58    -0.808759889000E+03   -0.91658E-03   -0.92031E-03  2176   0.108E-01  -0.239E-03
CGA:  59    -0.808760249697E+03   -0.36070E-03   -0.35918E-03  2176   0.640E-02  -0.121E-03
CGA:  60    -0.808760545252E+03   -0.29555E-03   -0.29577E-03  2176   0.406E-02  -0.110E-03
CGA:  61    -0.808760861840E+03   -0.31659E-03   -0.32034E-03  2176   0.474E-02  -0.103E-03
CGA:  62    -0.808761054797E+03   -0.19296E-03   -0.19263E-03  2176   0.295E-02  -0.440E-04
CGA:  63    -0.808761191597E+03   -0.13680E-03   -0.13677E-03  2176   0.384E-02  -0.282E-04
CGA:  64    -0.808761397726E+03   -0.20613E-03   -0.20644E-03  2176   0.398E-02  -0.464E-04
CGA:  65    -0.808761633952E+03   -0.23623E-03   -0.23705E-03  2176   0.166E-02  -0.673E-04
CGA:  66    -0.808761702388E+03   -0.68436E-04   -0.68145E-04  2176   0.112E-02  -0.370E-04
CGA:  67    -0.808761776829E+03   -0.74441E-04   -0.75912E-04  2176   0.143E-02  -0.706E-04
CGA:  68    -0.808761844980E+03   -0.68151E-04   -0.68154E-04  2176   0.144E-02  -0.739E-04
CGA:  69    -0.808761903545E+03   -0.58565E-04   -0.58040E-04  2176   0.361E-03  -0.623E-04
CGA:  70    -0.808761925209E+03   -0.21664E-04   -0.21831E-04  2176   0.397E-03  -0.128E-04
CGA:  71    -0.808761937321E+03   -0.12111E-04   -0.12086E-04  2176   0.303E-03  -0.121E-05
CGA:  72    -0.808761962184E+03   -0.24863E-04   -0.24531E-04  2176   0.188E-03   0.103E-04
CGA:  73    -0.808761972440E+03   -0.10256E-04   -0.10256E-04  2176   0.133E-03   0.755E-05
CGA:  74    -0.808761977568E+03   -0.51281E-05   -0.52023E-05  2176   0.116E-03   0.498E-05
   1 F= -.80876198E+03 E0= -.80872853E+03  d E =-.808762E+03  mag=    66.0000
