       N       E                     dE             d eps       ncg     rms          ort
DAV:   1     0.180691712760E+05    0.18069E+05   -0.67633E+05  1536   0.178E+03
DAV:   2     0.157904860932E+04   -0.16490E+05   -0.15857E+05  1536   0.551E+02
DAV:   3    -0.141239032764E+04   -0.29914E+04   -0.28839E+04  1536   0.214E+02
DAV:   4    -0.164380348321E+04   -0.23141E+03   -0.21967E+03  1536   0.627E+01
DAV:   5    -0.165588098478E+04   -0.12078E+02   -0.11278E+02  1536   0.134E+01
SDA:   6    -0.203007933448E+03    0.14529E+04   -0.11278E+02  1536   0.862E+04 0.000E+00
CGA:   7    -0.926487201404E+03   -0.72348E+03   -0.78989E+03  1536   0.755E+04-0.690E+03
CGA:   8    -0.111593607970E+04   -0.18945E+03   -0.27345E+03  1536   0.157E+04-0.144E+04
CGA:   9    -0.116581298267E+04   -0.49877E+02   -0.44842E+02  1536   0.432E+03 0.197E+02
CGA:  10    -0.120206535032E+04   -0.36252E+02   -0.36259E+02  1536   0.103E+04-0.443E+02
CGA:  11    -0.121756318862E+04   -0.15498E+02   -0.40586E+02  1536   0.234E+04-0.435E+03
CGA:  12    -0.123928841380E+04   -0.21725E+02   -0.21761E+02  1536   0.656E+03 0.110E+03
CGA:  13    -0.122976339174E+04    0.95250E+01   -0.17852E+02  1536   0.180E+04-0.107E+04
CGA:  14    -0.122544629698E+04    0.43171E+01   -0.50802E+02  1536   0.213E+04-0.142E+04
CGA:  15    -0.123624989955E+04   -0.10804E+02   -0.49191E+02  1536   0.230E+04-0.232E+04
CGA:  16    -0.123788717904E+04   -0.16373E+01   -0.55741E+02  1536   0.198E+04-0.176E+04
CGA:  17    -0.124148441031E+04   -0.35972E+01   -0.46216E+02  1536   0.246E+04-0.235E+04
CGA:  18    -0.124445979241E+04   -0.29754E+01   -0.57254E+02  1536   0.197E+04-0.189E+04
CGA:  19    -0.124990169052E+04   -0.54419E+01   -0.44348E+02  1536   0.217E+04-0.222E+04
CGA:  20    -0.125018902402E+04   -0.28733E+00   -0.50718E+02  1536   0.193E+04-0.179E+04
CGA:  21    -0.125592561504E+04   -0.57366E+01   -0.42472E+02  1536   0.197E+04-0.207E+04
CGA:  22    -0.125409857745E+04    0.18270E+01   -0.46675E+02  1536   0.191E+04-0.172E+04
CGA:  23    -0.126152347583E+04   -0.74249E+01   -0.41141E+02  1536   0.175E+04-0.193E+04
CGA:  24    -0.126003519580E+04    0.14883E+01   -0.41225E+02  1536   0.173E+04-0.156E+04
CGA:  25    -0.126873363366E+04   -0.86984E+01   -0.36170E+02  1536   0.136E+04-0.160E+04
CGA:  26    -0.126954189397E+04   -0.80826E+00   -0.31123E+02  1536   0.126E+04-0.119E+04
CGA:  27    -0.127821076964E+04   -0.86689E+01   -0.24738E+02  1536   0.725E+03-0.958E+03
CGA:  28    -0.128219572188E+04   -0.39850E+01   -0.14657E+02  1536   0.433E+03-0.503E+03
CGA:  29    -0.128687113876E+04   -0.46754E+01   -0.70378E+01  1536   0.925E+02-0.156E+03
CGA:  30    -0.128905257356E+04   -0.21814E+01   -0.23373E+01  1536   0.482E+02-0.194E+01
CGA:  31    -0.129107163964E+04   -0.20191E+01   -0.22992E+01  1536   0.698E+02-0.774E+00
CGA:  32    -0.129534410402E+04   -0.42725E+01   -0.41973E+01  1536   0.543E+02-0.108E+00
CGA:  33    -0.129726012012E+04   -0.19160E+01   -0.22199E+01  1536   0.184E+02-0.824E+00
CGA:  34    -0.129799254754E+04   -0.73243E+00   -0.82004E+00  1536   0.104E+02-0.322E+00
CGA:  35    -0.129872361216E+04   -0.73106E+00   -0.73197E+00  1536   0.917E+01 0.658E+00
CGA:  36    -0.129937024535E+04   -0.64663E+00   -0.65442E+00  1536   0.705E+01 0.628E+00
CGA:  37    -0.129983125542E+04   -0.46101E+00   -0.47328E+00  1536   0.419E+01 0.491E+00
CGA:  38    -0.130014165654E+04   -0.31040E+00   -0.31150E+00  1536   0.304E+01 0.240E+00
CGA:  39    -0.130047437690E+04   -0.33272E+00   -0.31979E+00  1536   0.226E+01 0.333E+00
CGA:  40    -0.130070280535E+04   -0.22843E+00   -0.22258E+00  1536   0.139E+01 0.239E+00
CGA:  41    -0.130086140818E+04   -0.15860E+00   -0.15843E+00  1536   0.137E+01 0.291E-02
CGA:  42    -0.130104522969E+04   -0.18382E+00   -0.18119E+00  1536   0.105E+01 0.299E-01
CGA:  43    -0.130113219845E+04   -0.86969E-01   -0.87010E-01  1536   0.575E+00-0.733E-02
CGA:  44    -0.130120396720E+04   -0.71769E-01   -0.72536E-01  1536   0.723E+00-0.143E-01
CGA:  45    -0.130128346111E+04   -0.79494E-01   -0.80659E-01  1536   0.465E+00-0.283E-01
CGA:  46    -0.130131849909E+04   -0.35038E-01   -0.35019E-01  1536   0.247E+00-0.279E-02
CGA:  47    -0.130135147159E+04   -0.32972E-01   -0.34162E-01  1536   0.440E+00-0.194E-01
CGA:  48    -0.130139430376E+04   -0.42832E-01   -0.43112E-01  1536   0.222E+00-0.100E-01
CGA:  49    -0.130141071817E+04   -0.16414E-01   -0.16265E-01  1536   0.203E+00-0.459E-02
CGA:  50    -0.130143848488E+04   -0.27767E-01   -0.28308E-01  1536   0.297E+00-0.948E-02
CGA:  51    -0.130145868476E+04   -0.20200E-01   -0.19935E-01  1536   0.129E+00-0.362E-02
CGA:  52    -0.130147188793E+04   -0.13203E-01   -0.13286E-01  1536   0.134E+00-0.303E-02
CGA:  53    -0.130148731391E+04   -0.15426E-01   -0.15409E-01  1536   0.127E+00 0.478E-03
CGA:  54    -0.130149653085E+04   -0.92169E-02   -0.92027E-02  1536   0.102E+00 0.531E-03
CGA:  55    -0.130150712280E+04   -0.10592E-01   -0.10715E-01  1536   0.157E+00-0.455E-02
CGA:  56    -0.130151610138E+04   -0.89786E-02   -0.87143E-02  1536   0.771E-01 0.128E-02
CGA:  57    -0.130152119407E+04   -0.50927E-02   -0.50823E-02  1536   0.609E-01 0.306E-03
CGA:  58    -0.130152632199E+04   -0.51279E-02   -0.51287E-02  1536   0.106E+00 0.225E-03
SDA:  59    -0.130153339531E+04   -0.70733E-02   -0.68747E-02  1536   0.782E-01-0.534E-03
CGA:  60    -0.130153718431E+04   -0.37890E-02   -0.37771E-02  1536   0.492E-01-0.176E-04
CGA:  61    -0.130154228599E+04   -0.51017E-02   -0.51190E-02  1536   0.910E-01-0.690E-03
CGA:  62    -0.130155405671E+04   -0.11771E-01   -0.11842E-01  1536   0.219E+00-0.179E-02
CGA:  63    -0.130156440745E+04   -0.10351E-01   -0.85265E-02  1536   0.565E-01 0.305E-01
CGA:  64    -0.130156741879E+04   -0.30113E-02   -0.29364E-02  1536   0.535E-01 0.527E-03
CGA:  65    -0.130156997957E+04   -0.25608E-02   -0.25110E-02  1536   0.382E-01 0.291E-03
CGA:  66    -0.130157152975E+04   -0.15502E-02   -0.15391E-02  1536   0.219E-01 0.134E-03
CGA:  67    -0.130157226566E+04   -0.73591E-03   -0.73155E-03  1536   0.105E-01 0.163E-03
CGA:  68    -0.130157266217E+04   -0.39651E-03   -0.39793E-03  1536   0.641E-02 0.978E-04
CGA:  69    -0.130157302572E+04   -0.36356E-03   -0.36578E-03  1536   0.112E-01 0.142E-03
CGA:  70    -0.130157373941E+04   -0.71369E-03   -0.71635E-03  1536   0.109E-01 0.325E-03
CGA:  71    -0.130157410293E+04   -0.36352E-03   -0.36860E-03  1536   0.520E-02 0.272E-03
CGA:  72    -0.130157429359E+04   -0.19066E-03   -0.19464E-03  1536   0.351E-02 0.131E-03
CGA:  73    -0.130157447433E+04   -0.18074E-03   -0.18272E-03  1536   0.469E-02 0.126E-03
CGA:  74    -0.130157475673E+04   -0.28240E-03   -0.28321E-03  1536   0.699E-02 0.162E-03
CGA:  75    -0.130157501792E+04   -0.26119E-03   -0.26039E-03  1536   0.311E-02 0.263E-03
CGA:  76    -0.130157510507E+04   -0.87154E-04   -0.88383E-04  1536   0.183E-02 0.464E-04
CGA:  77    -0.130157520941E+04   -0.10434E-03   -0.10425E-03  1536   0.273E-02-0.349E-05
CGA:  78    -0.130157532555E+04   -0.11614E-03   -0.11413E-03  1536   0.286E-02-0.270E-04
CGA:  79    -0.130157543505E+04   -0.10950E-03   -0.10594E-03  1536   0.194E-02-0.379E-04
CGA:  80    -0.130157548907E+04   -0.54021E-04   -0.51917E-04  1536   0.106E-02-0.353E-04
CGA:  81    -0.130157552703E+04   -0.37960E-04   -0.36480E-04  1536   0.859E-03-0.556E-04
CGA:  82    -0.130157556215E+04   -0.35113E-04   -0.33714E-04  1536   0.124E-02-0.784E-04
CGA:  83    -0.130157562487E+04   -0.62728E-04   -0.62217E-04  1536   0.167E-02-0.185E-03
CGA:  84    -0.130157565909E+04   -0.34212E-04   -0.30435E-04  1536   0.745E-03-0.751E-04
CGA:  85    -0.130157567929E+04   -0.20201E-04   -0.18805E-04  1536   0.644E-03-0.473E-04
CGA:  86    -0.130157570046E+04   -0.21170E-04   -0.20264E-04  1536   0.689E-03-0.449E-04
CGA:  87    -0.130157572243E+04   -0.21974E-04   -0.21201E-04  1536   0.883E-03-0.372E-04
CGA:  88    -0.130157575553E+04   -0.33098E-04   -0.32319E-04  1536   0.117E-02-0.442E-04
CGA:  89    -0.130157578450E+04   -0.28966E-04   -0.27370E-04  1536   0.762E-03-0.480E-05
SDA:  90    -0.130157580070E+04   -0.16205E-04   -0.15761E-04  1536   0.392E-03-0.104E-05
CGA:  91    -0.130157582114E+04   -0.20444E-04   -0.20391E-04  1536   0.460E-03 0.164E-04
CGA:  92    -0.130157586870E+04   -0.47552E-04   -0.44633E-04  1536   0.621E-03 0.657E-04
CGA:  93    -0.130157591565E+04   -0.46949E-04   -0.45973E-04  1536   0.306E-03 0.698E-04
CGA:  94    -0.130157593602E+04   -0.20376E-04   -0.20065E-04  1536   0.137E-03 0.430E-04
CGA:  95    -0.130157594767E+04   -0.11651E-04   -0.11049E-04  1536   0.139E-03 0.326E-04
CGA:  96    -0.130157595906E+04   -0.11389E-04   -0.10992E-04  1536   0.820E-04 0.360E-04
CGA:  97    -0.130157596445E+04   -0.53932E-05   -0.54173E-05  1536   0.385E-04 0.190E-04
   1 F= -.13015760E+04 E0= -.13015368E+04  d E =-.130158E+04  mag=    70.0000
       N       E                     dE             d eps       ncg     rms          ort
SDA:   1    -0.130157197431E+04    0.39848E-02    0.00000E+00  1536   0.657E-01 0.000E+00
CGA:   2    -0.130157355366E+04   -0.15794E-02   -0.15916E-02  1536   0.144E-01-0.300E-03
CGA:   3    -0.130157467634E+04   -0.11227E-02   -0.11230E-02  1536   0.122E-01-0.115E-04
CGA:   4    -0.130157523687E+04   -0.56053E-03   -0.56051E-03  1536   0.470E-02-0.215E-05
CGA:   5    -0.130157556114E+04   -0.32427E-03   -0.32435E-03  1536   0.460E-02-0.386E-05
CGA:   6    -0.130157593725E+04   -0.37610E-03   -0.37614E-03  1536   0.337E-02-0.163E-05
CGA:   7    -0.130157608124E+04   -0.14399E-03   -0.14394E-03  1536   0.728E-03-0.206E-05
CGA:   8    -0.130157611272E+04   -0.31489E-04   -0.31498E-04  1536   0.465E-03 0.643E-06
CGA:   9    -0.130157613877E+04   -0.26047E-04   -0.26045E-04  1536   0.263E-03 0.839E-06
CGA:  10    -0.130157616163E+04   -0.22857E-04   -0.22807E-04  1536   0.908E-04 0.153E-05
CGA:  11    -0.130157616587E+04   -0.42417E-05   -0.42436E-05  1536   0.511E-04 0.177E-06
   2 F= -.13015762E+04 E0= -.13015370E+04  d E =-.201416E-03  mag=    70.0000
       N       E                     dE             d eps       ncg     rms          ort
SDA:   1    -0.130157212990E+04    0.40317E-02    0.00000E+00  1536   0.103E+00 0.000E+00
CGA:   2    -0.130157426899E+04   -0.21391E-02   -0.21694E-02  1536   0.107E-01-0.101E-02
CGA:   3    -0.130157489366E+04   -0.62467E-03   -0.62469E-03  1536   0.736E-02-0.144E-05
CGA:   4    -0.130157560669E+04   -0.71303E-03   -0.71293E-03  1536   0.548E-02 0.299E-05
CGA:   5    -0.130157588140E+04   -0.27471E-03   -0.27469E-03  1536   0.271E-02-0.434E-06
CGA:   6    -0.130157605321E+04   -0.17181E-03   -0.17180E-03  1536   0.233E-02 0.102E-05
CGA:   7    -0.130157617215E+04   -0.11894E-03   -0.11893E-03  1536   0.117E-02-0.169E-05
CGA:   8    -0.130157622773E+04   -0.55578E-04   -0.55581E-04  1536   0.391E-03 0.655E-07
CGA:   9    -0.130157624561E+04   -0.17882E-04   -0.17880E-04  1536   0.205E-03-0.150E-06
CGA:  10    -0.130157626231E+04   -0.16699E-04   -0.16695E-04  1536   0.158E-03 0.168E-06
CGA:  11    -0.130157627192E+04   -0.96106E-05   -0.96105E-05  1536   0.638E-04 0.150E-06
   3 F= -.13015763E+04 E0= -.13015371E+04  d E =-.106050E-03  mag=    70.0000
