       N       E                     dE             d eps       ncg     rms          ort
DAV:   1     0.856908974134E+04    0.85691E+04   -0.35773E+05  1728   0.172E+03
DAV:   2     0.601683314876E+03   -0.79674E+04   -0.74314E+04  1728   0.497E+02
DAV:   3    -0.612994718365E+03   -0.12147E+04   -0.11633E+04  1728   0.191E+02
DAV:   4    -0.694948567149E+03   -0.81954E+02   -0.79317E+02  1728   0.464E+01
DAV:   5    -0.700121349097E+03   -0.51728E+01   -0.51141E+01  1728   0.920E+00
SDA:   6    -0.153778339796E+03    0.54634E+03   -0.51141E+01  1728   0.392E+04 0.000E+00
CGA:   7    -0.505074212298E+03   -0.35130E+03   -0.44847E+03  1728   0.300E+03 0.193E+02
CGA:   8    -0.537703432631E+03   -0.32629E+02   -0.29372E+02  1728   0.172E+03 0.244E+02
CGA:   9    -0.553582682500E+03   -0.15879E+02   -0.17141E+02  1728   0.718E+02-0.215E+02
CGA:  10    -0.560446643666E+03   -0.68640E+01   -0.53013E+01  1728   0.975E+02-0.442E+02
CGA:  11    -0.563471613008E+03   -0.30250E+01   -0.87859E+01  1728   0.384E+02 0.568E+00
CGA:  12    -0.567928529374E+03   -0.44569E+01   -0.21798E+01  1728   0.196E+02-0.192E+02
CGA:  13    -0.568532354534E+03   -0.60383E+00   -0.19370E+01  1728   0.231E+02 0.205E+01
CGA:  14    -0.570974511503E+03   -0.24422E+01   -0.21870E+01  1728   0.536E+02-0.166E+02
CGA:  15    -0.571098000285E+03   -0.12349E+00   -0.40287E+01  1728   0.190E+02-0.817E+01
CGA:  16    -0.572736640779E+03   -0.16386E+01   -0.73504E+00  1728   0.602E+01 0.134E+02
CGA:  17    -0.573034605037E+03   -0.29796E+00   -0.23592E+00  1728   0.384E+01 0.854E+00
CGA:  18    -0.573600431376E+03   -0.56583E+00   -0.57274E+00  1728   0.133E+02 0.154E+00
CGA:  19    -0.574760111849E+03   -0.11597E+01   -0.12341E+01  1728   0.692E+01 0.175E+00
CGA:  20    -0.574979471256E+03   -0.21936E+00   -0.36556E+00  1728   0.520E+00-0.156E+01
CGA:  21    -0.575033247711E+03   -0.53776E-01   -0.53905E-01  1728   0.529E+00 0.126E-01
CGA:  22    -0.575124205920E+03   -0.90958E-01   -0.90620E-01  1728   0.378E+00 0.767E-02
CGA:  23    -0.575172453077E+03   -0.48247E-01   -0.48218E-01  1728   0.135E+00-0.112E-02
CGA:  24    -0.575190977459E+03   -0.18524E-01   -0.18533E-01  1728   0.918E-01 0.203E-02
CGA:  25    -0.575207023172E+03   -0.16046E-01   -0.16080E-01  1728   0.560E-01-0.908E-03
CGA:  26    -0.575213550788E+03   -0.65276E-02   -0.65549E-02  1728   0.259E-01 0.238E-03
CGA:  27    -0.575217696044E+03   -0.41453E-02   -0.41487E-02  1728   0.148E-01-0.141E-03
CGA:  28    -0.575219874276E+03   -0.21782E-02   -0.21791E-02  1728   0.106E-01-0.793E-04
CGA:  29    -0.575221643490E+03   -0.17692E-02   -0.17700E-02  1728   0.540E-02-0.153E-04
CGA:  30    -0.575222372449E+03   -0.72896E-03   -0.72955E-03  1728   0.440E-02 0.675E-04
CGA:  31    -0.575223045600E+03   -0.67315E-03   -0.67252E-03  1728   0.201E-02 0.751E-04
CGA:  32    -0.575223403224E+03   -0.35762E-03   -0.35616E-03  1728   0.122E-02 0.460E-04
CGA:  33    -0.575223563863E+03   -0.16064E-03   -0.16070E-03  1728   0.765E-03 0.364E-05
CGA:  34    -0.575223692656E+03   -0.12879E-03   -0.12920E-03  1728   0.508E-03-0.166E-04
CGA:  35    -0.575223757318E+03   -0.64661E-04   -0.64386E-04  1728   0.304E-03-0.175E-04
CGA:  36    -0.575223806001E+03   -0.48684E-04   -0.49021E-04  1728   0.176E-03-0.144E-04
CGA:  37    -0.575223837620E+03   -0.31619E-04   -0.32086E-04  1728   0.136E-03-0.100E-04
CGA:  38    -0.575223852443E+03   -0.14823E-04   -0.14674E-04  1728   0.643E-04-0.461E-05
CGA:  39    -0.575223862822E+03   -0.10379E-04   -0.10492E-04  1728   0.447E-04-0.487E-05
CGA:  40    -0.575223869621E+03   -0.67991E-05   -0.68437E-05  1728   0.248E-04-0.240E-05
   1 F= -.57522387E+03 E0= -.57521758E+03  d E =-.575224E+03  mag=    70.0000
       N       E                     dE             d eps       ncg     rms          ort
SDA:   1    -0.575221408064E+03    0.24548E-02    0.00000E+00  1728   0.119E-01 0.000E+00
CGA:   2    -0.575222590618E+03   -0.11826E-02   -0.11768E-02  1728   0.820E-02-0.203E-05
CGA:   3    -0.575223798495E+03   -0.12079E-02   -0.12078E-02  1728   0.246E-02 0.129E-04
CGA:   4    -0.575224209481E+03   -0.41099E-03   -0.41102E-03  1728   0.857E-03-0.322E-05
CGA:   5    -0.575224317590E+03   -0.10811E-03   -0.10800E-03  1728   0.262E-03-0.309E-05
CGA:   6    -0.575224360732E+03   -0.43142E-04   -0.43102E-04  1728   0.610E-04 0.182E-05
CGA:   7    -0.575224369377E+03   -0.86458E-05   -0.86484E-05  1728   0.323E-04 0.508E-06
   2 F= -.57522437E+03 E0= -.57521809E+03  d E =-.499756E-03  mag=    70.0000
       N       E                     dE             d eps       ncg     rms          ort
SDA:   1    -0.575145130815E+03    0.79230E-01    0.00000E+00  1728   0.242E+00 0.000E+00
CGA:   2    -0.575187880104E+03   -0.42749E-01   -0.42921E-01  1728   0.241E+00-0.362E-02
CGA:   3    -0.575210211810E+03   -0.22332E-01   -0.22685E-01  1728   0.774E-01-0.182E-03
CGA:   4    -0.575222332003E+03   -0.12120E-01   -0.12122E-01  1728   0.182E-01-0.715E-04
CGA:   5    -0.575224960784E+03   -0.26288E-02   -0.26287E-02  1728   0.766E-02-0.656E-04
CGA:   6    -0.575225974092E+03   -0.10133E-02   -0.10139E-02  1728   0.173E-02 0.220E-04
CGA:   7    -0.575226208222E+03   -0.23413E-03   -0.23418E-03  1728   0.108E-02 0.389E-05
CGA:   8    -0.575226321783E+03   -0.11356E-03   -0.11348E-03  1728   0.351E-03-0.352E-06
CGA:   9    -0.575226380908E+03   -0.59125E-04   -0.59064E-04  1728   0.162E-03 0.217E-05
CGA:  10    -0.575226410007E+03   -0.29098E-04   -0.29101E-04  1728   0.862E-04-0.281E-07
CGA:  11    -0.575226425122E+03   -0.15116E-04   -0.15095E-04  1728   0.602E-04 0.700E-06
CGA:  12    -0.575226432506E+03   -0.73836E-05   -0.73824E-05  1728   0.389E-04-0.354E-07
   3 F= -.57522643E+03 E0= -.57522026E+03  d E =-.206313E-02  mag=    70.0000
