       N       E                     dE             d eps       ncg     rms          ort
DAV:   1     0.657251152156E+04    0.65725E+04   -0.29656E+05  1296   0.174E+03
DAV:   2     0.412507479656E+03   -0.61600E+04   -0.59078E+04  1296   0.511E+02
DAV:   3    -0.486913199980E+03   -0.89942E+03   -0.83295E+03  1296   0.187E+02
DAV:   4    -0.558335706256E+03   -0.71423E+02   -0.70042E+02  1296   0.501E+01
DAV:   5    -0.560842283709E+03   -0.25066E+01   -0.24929E+01  1296   0.928E+00
SDA:   6    -0.560795951566E+03    0.46332E-01   -0.24929E+01  1296   0.214E+00 0.000E+00
CGA:   7    -0.560829227767E+03   -0.33276E-01   -0.33234E-01  1296   0.253E+00-0.271E-03
CGA:   8    -0.560851349349E+03   -0.22122E-01   -0.22251E-01  1296   0.937E-01-0.104E-02
CGA:   9    -0.560862906875E+03   -0.11558E-01   -0.11579E-01  1296   0.659E-01 0.535E-05
CGA:  10    -0.560871033813E+03   -0.81269E-02   -0.81112E-02  1296   0.526E-01 0.108E-04
CGA:  11    -0.560877935894E+03   -0.69021E-02   -0.69203E-02  1296   0.457E-01-0.385E-04
CGA:  12    -0.560884444394E+03   -0.65085E-02   -0.64978E-02  1296   0.368E-01-0.171E-03
CGA:  13    -0.560889219911E+03   -0.47755E-02   -0.47705E-02  1296   0.210E-01-0.140E-03
CGA:  14    -0.560892590753E+03   -0.33708E-02   -0.33690E-02  1296   0.131E-01-0.104E-03
CGA:  15    -0.560894407973E+03   -0.18172E-02   -0.18154E-02  1296   0.665E-02-0.493E-04
CGA:  16    -0.560895282194E+03   -0.87422E-03   -0.87276E-03  1296   0.647E-02-0.251E-04
CGA:  17    -0.560895826848E+03   -0.54465E-03   -0.54461E-03  1296   0.256E-02-0.266E-04
CGA:  18    -0.560896261764E+03   -0.43492E-03   -0.43495E-03  1296   0.177E-02-0.190E-04
CGA:  19    -0.560896492441E+03   -0.23068E-03   -0.23015E-03  1296   0.113E-02-0.125E-04
CGA:  20    -0.560896649870E+03   -0.15743E-03   -0.15732E-03  1296   0.815E-03-0.451E-05
CGA:  21    -0.560896731990E+03   -0.82120E-04   -0.82258E-04  1296   0.450E-03 0.207E-05
CGA:  22    -0.560896791497E+03   -0.59507E-04   -0.59708E-04  1296   0.308E-03 0.667E-05
CGA:  23    -0.560896826385E+03   -0.34887E-04   -0.35234E-04  1296   0.191E-03 0.706E-05
CGA:  24    -0.560896851690E+03   -0.25306E-04   -0.25492E-04  1296   0.175E-03 0.676E-05
CGA:  25    -0.560896872602E+03   -0.20911E-04   -0.21132E-04  1296   0.963E-04 0.545E-05
CGA:  26    -0.560896891076E+03   -0.18474E-04   -0.18341E-04  1296   0.756E-04 0.450E-05
CGA:  27    -0.560896905017E+03   -0.13941E-04   -0.13878E-04  1296   0.640E-04 0.340E-05
CGA:  28    -0.560896911958E+03   -0.69407E-05   -0.70811E-05  1296   0.546E-04 0.274E-05
   1 F= -.56089691E+03 E0= -.56088652E+03  d E =-.560897E+03  mag=     8.0000
