       N       E                     dE             d eps       ncg     rms          ort
DAV:   1     0.856537694183E+04    0.85654E+04   -0.35777E+05  1728   0.172E+03
DAV:   2     0.607215684619E+03   -0.79582E+04   -0.74292E+04  1728   0.497E+02
DAV:   3    -0.611126768140E+03   -0.12183E+04   -0.11661E+04  1728   0.190E+02
DAV:   4    -0.694636695732E+03   -0.83510E+02   -0.80985E+02  1728   0.466E+01
DAV:   5    -0.699660309297E+03   -0.50236E+01   -0.49727E+01  1728   0.916E+00
SDA:   6    -0.159220271593E+03    0.54044E+03   -0.49727E+01  1728   0.379E+04 0.000E+00
CGA:   7    -0.507002522183E+03   -0.34778E+03   -0.43454E+03  1728   0.346E+03-0.120E+02
CGA:   8    -0.541660038544E+03   -0.34658E+02   -0.39767E+02  1728   0.141E+03 0.138E+02
CGA:   9    -0.553260030449E+03   -0.11600E+02   -0.14740E+02  1728   0.798E+02-0.187E+02
CGA:  10    -0.561091739400E+03   -0.78317E+01   -0.66344E+01  1728   0.900E+02-0.369E+02
CGA:  11    -0.564368865586E+03   -0.32771E+01   -0.42445E+01  1728   0.878E+02-0.108E+02
CGA:  12    -0.568059303388E+03   -0.36904E+01   -0.49467E+01  1728   0.438E+02-0.289E+02
CGA:  13    -0.570955063520E+03   -0.28958E+01   -0.15864E+01  1728   0.184E+02 0.137E+02
CGA:  14    -0.570174196540E+03    0.78087E+00   -0.15528E+01  1728   0.419E+02-0.652E+01
CGA:  15    -0.571731201725E+03   -0.15570E+01   -0.14722E+01  1728   0.468E+02 0.605E+00
CGA:  16    -0.572351971724E+03   -0.62077E+00   -0.18245E+01  1728   0.146E+02-0.281E+02
CGA:  17    -0.573198168528E+03   -0.84620E+00   -0.10417E+01  1728   0.116E+02-0.146E+01
CGA:  18    -0.574122777048E+03   -0.92461E+00   -0.93246E+00  1728   0.421E+01-0.174E+00
CGA:  19    -0.574432121343E+03   -0.30934E+00   -0.29851E+00  1728   0.159E+01 0.259E-01
CGA:  20    -0.574650399982E+03   -0.21828E+00   -0.21849E+00  1728   0.861E+00 0.298E-01
CGA:  21    -0.574740339771E+03   -0.89940E-01   -0.94970E-01  1728   0.967E+00 0.343E-01
CGA:  22    -0.574832924064E+03   -0.92584E-01   -0.92402E-01  1728   0.455E+00-0.902E-02
CGA:  23    -0.574869310871E+03   -0.36387E-01   -0.37679E-01  1728   0.177E+00-0.277E-02
CGA:  24    -0.574893666270E+03   -0.24355E-01   -0.24274E-01  1728   0.905E-01 0.828E-02
CGA:  25    -0.574910239272E+03   -0.16573E-01   -0.16466E-01  1728   0.697E-01 0.182E-02
CGA:  26    -0.574918471587E+03   -0.82323E-02   -0.82755E-02  1728   0.367E-01 0.632E-03
CGA:  27    -0.574923130384E+03   -0.46588E-02   -0.46641E-02  1728   0.279E-01 0.198E-03
CGA:  28    -0.574926358191E+03   -0.32278E-02   -0.32361E-02  1728   0.217E-01 0.110E-03
CGA:  29    -0.574929523783E+03   -0.31656E-02   -0.31709E-02  1728   0.910E-02-0.246E-03
CGA:  30    -0.574931252596E+03   -0.17288E-02   -0.17216E-02  1728   0.384E-02 0.112E-03
CGA:  31    -0.574932010000E+03   -0.75740E-03   -0.75567E-03  1728   0.333E-02 0.303E-04
CGA:  32    -0.574932371726E+03   -0.36173E-03   -0.36175E-03  1728   0.215E-02 0.452E-05
CGA:  33    -0.574932666053E+03   -0.29433E-03   -0.29431E-03  1728   0.163E-02-0.184E-04
CGA:  34    -0.574932863390E+03   -0.19734E-03   -0.19678E-03  1728   0.929E-03-0.322E-04
CGA:  35    -0.574933030364E+03   -0.16697E-03   -0.16953E-03  1728   0.575E-03-0.515E-04
CGA:  36    -0.574933127168E+03   -0.96804E-04   -0.98098E-04  1728   0.357E-03-0.317E-04
CGA:  37    -0.574933171565E+03   -0.44397E-04   -0.44292E-04  1728   0.204E-03-0.947E-05
CGA:  38    -0.574933198147E+03   -0.26582E-04   -0.26585E-04  1728   0.177E-03 0.386E-06
CGA:  39    -0.574933217334E+03   -0.19187E-04   -0.19270E-04  1728   0.793E-04 0.260E-05
CGA:  40    -0.574933234571E+03   -0.17237E-04   -0.16999E-04  1728   0.580E-04 0.329E-05
CGA:  41    -0.574933245997E+03   -0.11427E-04   -0.11237E-04  1728   0.599E-04 0.437E-05
CGA:  42    -0.574933256030E+03   -0.10032E-04   -0.99763E-05  1728   0.432E-04 0.555E-05
CGA:  43    -0.574933263853E+03   -0.78237E-05   -0.77287E-05  1728   0.479E-04 0.512E-05
   1 F= -.57493326E+03 E0= -.57492397E+03  d E =-.574933E+03  mag=    70.0000
       N       E                     dE             d eps       ncg     rms          ort
SDA:   1    -0.574929842339E+03    0.34137E-02    0.00000E+00  1728   0.120E-01 0.000E+00
CGA:   2    -0.574931929602E+03   -0.20873E-02   -0.20877E-02  1728   0.103E-01-0.766E-05
CGA:   3    -0.574932998288E+03   -0.10687E-02   -0.10692E-02  1728   0.383E-02 0.502E-05
CGA:   4    -0.574933432551E+03   -0.43426E-03   -0.43442E-03  1728   0.198E-02 0.217E-05
CGA:   5    -0.574933618411E+03   -0.18586E-03   -0.18579E-03  1728   0.563E-03-0.560E-06
CGA:   6    -0.574933697133E+03   -0.78722E-04   -0.78723E-04  1728   0.180E-03-0.145E-05
CGA:   7    -0.574933721341E+03   -0.24207E-04   -0.24209E-04  1728   0.660E-04 0.298E-06
CGA:   8    -0.574933729367E+03   -0.80260E-05   -0.80198E-05  1728   0.435E-04-0.341E-06
   2 F= -.57493373E+03 E0= -.57492445E+03  d E =-.465513E-03  mag=    70.0000
       N       E                     dE             d eps       ncg     rms          ort
SDA:   1    -0.574817723320E+03    0.11600E+00    0.00000E+00  1728   0.463E+00 0.000E+00
CGA:   2    -0.574860899920E+03   -0.43177E-01   -0.42716E-01  1728   0.367E+00-0.705E-03
CGA:   3    -0.574910858869E+03   -0.49959E-01   -0.49957E-01  1728   0.102E+00 0.142E-02
CGA:   4    -0.574928176330E+03   -0.17317E-01   -0.17277E-01  1728   0.379E-01 0.838E-03
CGA:   5    -0.574932554704E+03   -0.43784E-02   -0.43638E-02  1728   0.128E-01-0.188E-03
CGA:   6    -0.574934290489E+03   -0.17358E-02   -0.17358E-02  1728   0.589E-02 0.834E-05
CGA:   7    -0.574934751288E+03   -0.46080E-03   -0.46036E-03  1728   0.173E-02 0.406E-05
CGA:   8    -0.574934993786E+03   -0.24250E-03   -0.24249E-03  1728   0.943E-03-0.503E-06
CGA:   9    -0.574935107559E+03   -0.11377E-03   -0.11378E-03  1728   0.375E-03 0.193E-06
CGA:  10    -0.574935166092E+03   -0.58533E-04   -0.58479E-04  1728   0.204E-03 0.219E-05
CGA:  11    -0.574935208874E+03   -0.42782E-04   -0.42648E-04  1728   0.958E-04 0.182E-05
CGA:  12    -0.574935227054E+03   -0.18180E-04   -0.18182E-04  1728   0.117E-03-0.594E-07
CGA:  13    -0.574935238844E+03   -0.11790E-04   -0.11777E-04  1728   0.519E-04-0.307E-06
CGA:  14    -0.574935246296E+03   -0.74517E-05   -0.74524E-05  1728   0.310E-04-0.148E-06
   3 F= -.57493525E+03 E0= -.57492609E+03  d E =-.151693E-02  mag=    70.0000
