       N       E                     dE             d eps       ncg     rms          ort
DAV:   1     0.729009503947E+04    0.72901E+04   -0.28887E+05  1296   0.173E+03
DAV:   2     0.613969607542E+03   -0.66761E+04   -0.64338E+04  1296   0.525E+02
DAV:   3    -0.663349107200E+03   -0.12773E+04   -0.12376E+04  1296   0.206E+02
DAV:   4    -0.740940047172E+03   -0.77591E+02   -0.75701E+02  1296   0.588E+01
DAV:   5    -0.745073846969E+03   -0.41338E+01   -0.39837E+01  1296   0.118E+01
SDA:   6     0.469761837475E+02    0.79205E+03   -0.39837E+01  1296   0.505E+04 0.000E+00
CGA:   7    -0.449054092537E+03   -0.49603E+03   -0.58910E+03  1296   0.454E+03 0.225E+03
CGA:   8    -0.491587560041E+03   -0.42533E+02   -0.50400E+02  1296   0.357E+03-0.285E+02
CGA:   9    -0.520529430286E+03   -0.28942E+02   -0.31283E+02  1296   0.219E+03 0.946E+01
CGA:  10    -0.537376834069E+03   -0.16847E+02   -0.18753E+02  1296   0.144E+03-0.607E+02
CGA:  11    -0.547288839643E+03   -0.99120E+01   -0.87021E+01  1296   0.769E+02 0.123E+02
CGA:  12    -0.551223055648E+03   -0.39342E+01   -0.40753E+01  1296   0.648E+02-0.889E+01
CGA:  13    -0.551923951269E+03   -0.70090E+00   -0.25815E+01  1296   0.104E+03-0.362E+02
CGA:  14    -0.554785062115E+03   -0.28611E+01   -0.63904E+01  1296   0.382E+02-0.286E+02
CGA:  15    -0.557156267111E+03   -0.23712E+01   -0.17765E+01  1296   0.950E+01 0.441E+01
CGA:  16    -0.557771525865E+03   -0.61526E+00   -0.64566E+00  1296   0.116E+02-0.515E+00
CGA:  17    -0.558362389471E+03   -0.59086E+00   -0.65565E+00  1296   0.959E+01-0.819E+00
CGA:  18    -0.558951232904E+03   -0.58884E+00   -0.62619E+00  1296   0.505E+01-0.266E+00
CGA:  19    -0.559199078195E+03   -0.24785E+00   -0.28715E+00  1296   0.197E+01-0.376E+00
CGA:  20    -0.559348421014E+03   -0.14934E+00   -0.15746E+00  1296   0.190E+01-0.691E-02
CGA:  21    -0.559618190536E+03   -0.26977E+00   -0.27410E+00  1296   0.201E+01-0.246E+00
CGA:  22    -0.559742117628E+03   -0.12393E+00   -0.12869E+00  1296   0.116E+01-0.307E-01
CGA:  23    -0.559816571887E+03   -0.74454E-01   -0.77023E-01  1296   0.542E+00-0.147E-01
CGA:  24    -0.559859878281E+03   -0.43306E-01   -0.43323E-01  1296   0.435E+00 0.169E-03
CGA:  25    -0.559911267277E+03   -0.51389E-01   -0.51423E-01  1296   0.444E+00 0.164E-02
CGA:  26    -0.559945530098E+03   -0.34263E-01   -0.35043E-01  1296   0.235E+00 0.492E-04
CGA:  27    -0.559968290699E+03   -0.22761E-01   -0.22710E-01  1296   0.163E+00-0.689E-03
CGA:  28    -0.559985192249E+03   -0.16902E-01   -0.16863E-01  1296   0.162E+00-0.985E-03
CGA:  29    -0.560001189200E+03   -0.15997E-01   -0.15967E-01  1296   0.901E-01-0.750E-03
CGA:  30    -0.560008898350E+03   -0.77092E-02   -0.76736E-02  1296   0.679E-01-0.400E-03
CGA:  31    -0.560015608981E+03   -0.67106E-02   -0.66985E-02  1296   0.512E-01-0.463E-03
CGA:  32    -0.560020605540E+03   -0.49966E-02   -0.49835E-02  1296   0.413E-01-0.399E-03
CGA:  33    -0.560024024850E+03   -0.34193E-02   -0.33997E-02  1296   0.289E-01-0.163E-03
CGA:  34    -0.560026882996E+03   -0.28581E-02   -0.28571E-02  1296   0.237E-01-0.193E-04
CGA:  35    -0.560028829517E+03   -0.19465E-02   -0.19482E-02  1296   0.180E-01 0.763E-04
CGA:  36    -0.560030567234E+03   -0.17377E-02   -0.17385E-02  1296   0.127E-01 0.106E-03
CGA:  37    -0.560031641934E+03   -0.10747E-02   -0.10767E-02  1296   0.101E-01 0.104E-03
CGA:  38    -0.560032557831E+03   -0.91590E-03   -0.91692E-03  1296   0.612E-02 0.911E-04
CGA:  39    -0.560033149176E+03   -0.59134E-03   -0.59210E-03  1296   0.620E-02 0.678E-04
CGA:  40    -0.560033692766E+03   -0.54359E-03   -0.54470E-03  1296   0.356E-02 0.624E-04
CGA:  41    -0.560034021535E+03   -0.32877E-03   -0.32922E-03  1296   0.326E-02 0.249E-04
CGA:  42    -0.560034302534E+03   -0.28100E-03   -0.28092E-03  1296   0.233E-02 0.205E-05
CGA:  43    -0.560034559650E+03   -0.25712E-03   -0.25723E-03  1296   0.237E-02-0.169E-04
SDA:  44    -0.560034736339E+03   -0.17669E-03   -0.17646E-03  1296   0.150E-02-0.115E-04
CGA:  45    -0.560034886363E+03   -0.15002E-03   -0.14998E-03  1296   0.804E-03-0.966E-05
CGA:  46    -0.560035073918E+03   -0.18755E-03   -0.19096E-03  1296   0.108E-02-0.267E-04
CGA:  47    -0.560035184822E+03   -0.11090E-03   -0.11076E-03  1296   0.863E-03-0.263E-04
CGA:  48    -0.560035332181E+03   -0.14736E-03   -0.15047E-03  1296   0.740E-03-0.465E-04
CGA:  49    -0.560035454382E+03   -0.12220E-03   -0.12472E-03  1296   0.666E-03-0.400E-04
CGA:  50    -0.560035554447E+03   -0.10006E-03   -0.10271E-03  1296   0.652E-03-0.509E-04
CGA:  51    -0.560035623062E+03   -0.68615E-04   -0.68396E-04  1296   0.442E-03-0.171E-04
CGA:  52    -0.560035688827E+03   -0.65765E-04   -0.65658E-04  1296   0.476E-03 0.535E-05
CGA:  53    -0.560035750344E+03   -0.61517E-04   -0.61404E-04  1296   0.488E-03 0.186E-04
CGA:  54    -0.560035837575E+03   -0.87232E-04   -0.85530E-04  1296   0.629E-03 0.357E-04
CGA:  55    -0.560035923239E+03   -0.85664E-04   -0.85601E-04  1296   0.477E-03 0.276E-04
CGA:  56    -0.560035987091E+03   -0.63852E-04   -0.63741E-04  1296   0.465E-03 0.244E-04
CGA:  57    -0.560036055802E+03   -0.68710E-04   -0.68306E-04  1296   0.498E-03 0.201E-04
CGA:  58    -0.560036119835E+03   -0.64034E-04   -0.64044E-04  1296   0.246E-03 0.390E-05
CGA:  59    -0.560036162117E+03   -0.42282E-04   -0.42609E-04  1296   0.249E-03-0.792E-05
CGA:  60    -0.560036192093E+03   -0.29976E-04   -0.29957E-04  1296   0.200E-03-0.987E-05
CGA:  61    -0.560036212561E+03   -0.20468E-04   -0.20300E-04  1296   0.987E-04-0.103E-04
CGA:  62    -0.560036227728E+03   -0.15167E-04   -0.15533E-04  1296   0.694E-04-0.995E-05
CGA:  63    -0.560036237698E+03   -0.99698E-05   -0.10262E-04  1296   0.829E-04-0.840E-05
   1 F= -.56003624E+03 E0= -.56002760E+03  d E =-.560036E+03  mag=     8.0000
       N       E                     dE             d eps       ncg     rms          ort
SDA:   1    -0.560031013583E+03    0.52141E-02    0.00000E+00  1296   0.300E-01 0.000E+00
CGA:   2    -0.560033651469E+03   -0.26379E-02   -0.26369E-02  1296   0.140E-01 0.136E-04
CGA:   3    -0.560035104407E+03   -0.14529E-02   -0.14530E-02  1296   0.660E-02 0.103E-04
CGA:   4    -0.560036057362E+03   -0.95295E-03   -0.95300E-03  1296   0.386E-02-0.269E-05
CGA:   5    -0.560036441412E+03   -0.38405E-03   -0.38386E-03  1296   0.802E-03-0.662E-05
CGA:   6    -0.560036528458E+03   -0.87046E-04   -0.87034E-04  1296   0.499E-03-0.738E-06
CGA:   7    -0.560036572459E+03   -0.44001E-04   -0.43969E-04  1296   0.164E-03-0.874E-06
CGA:   8    -0.560036588655E+03   -0.16195E-04   -0.16185E-04  1296   0.552E-04-0.433E-06
CGA:   9    -0.560036597421E+03   -0.87660E-05   -0.87805E-05  1296   0.349E-04-0.395E-06
   2 F= -.56003660E+03 E0= -.56002793E+03  d E =-.359723E-03  mag=     8.0000
