       N       E                     dE             d eps       ncg     rms          ort
DAV:   1     0.857484822263E+04    0.85748E+04   -0.35767E+05  1728   0.172E+03
DAV:   2     0.610796370313E+03   -0.79641E+04   -0.74345E+04  1728   0.497E+02
DAV:   3    -0.611544734643E+03   -0.12223E+04   -0.11693E+04  1728   0.190E+02
DAV:   4    -0.695269600702E+03   -0.83725E+02   -0.81010E+02  1728   0.466E+01
DAV:   5    -0.700414033375E+03   -0.51444E+01   -0.50885E+01  1728   0.918E+00
SDA:   6    -0.141655052259E+03    0.55876E+03   -0.50885E+01  1728   0.396E+04 0.000E+00
CGA:   7    -0.504018553393E+03   -0.36236E+03   -0.45305E+03  1728   0.381E+03-0.435E+02
CGA:   8    -0.540673436784E+03   -0.36655E+02   -0.36563E+02  1728   0.198E+03 0.648E+01
CGA:   9    -0.553864938591E+03   -0.13192E+02   -0.18731E+02  1728   0.890E+02-0.241E+02
CGA:  10    -0.560636034456E+03   -0.67711E+01   -0.67312E+01  1728   0.607E+02-0.563E+01
CGA:  11    -0.566998676179E+03   -0.63626E+01   -0.69478E+01  1728   0.514E+02-0.243E+01
CGA:  12    -0.571160190164E+03   -0.41615E+01   -0.35861E+01  1728   0.164E+02-0.463E+01
CGA:  13    -0.572438961822E+03   -0.12788E+01   -0.16355E+01  1728   0.210E+02 0.247E+00
CGA:  14    -0.573314855978E+03   -0.87589E+00   -0.15318E+01  1728   0.194E+02-0.421E+01
CGA:  15    -0.573938723966E+03   -0.62387E+00   -0.64952E+00  1728   0.961E+01-0.163E+01
CGA:  16    -0.574261104207E+03   -0.32238E+00   -0.33522E+00  1728   0.606E+01-0.847E+00
CGA:  17    -0.574460023469E+03   -0.19892E+00   -0.28377E+00  1728   0.491E+01-0.112E+01
CGA:  18    -0.574568629195E+03   -0.10861E+00   -0.19597E+00  1728   0.424E+01-0.121E+01
CGA:  19    -0.574767847746E+03   -0.19922E+00   -0.21712E+00  1728   0.146E+01-0.158E+00
CGA:  20    -0.574894473700E+03   -0.12663E+00   -0.12511E+00  1728   0.864E+00-0.274E-03
CGA:  21    -0.574966389434E+03   -0.71916E-01   -0.73905E-01  1728   0.582E+00-0.412E-02
CGA:  22    -0.575034362450E+03   -0.67973E-01   -0.68332E-01  1728   0.433E+00 0.789E-02
CGA:  23    -0.575084701597E+03   -0.50339E-01   -0.50227E-01  1728   0.150E+00-0.266E-02
CGA:  24    -0.575111115975E+03   -0.26414E-01   -0.26391E-01  1728   0.111E+00 0.184E-03
CGA:  25    -0.575125660809E+03   -0.14545E-01   -0.14554E-01  1728   0.516E-01 0.138E-02
CGA:  26    -0.575131893456E+03   -0.62326E-02   -0.62281E-02  1728   0.406E-01-0.149E-03
CGA:  27    -0.575136400730E+03   -0.45073E-02   -0.45102E-02  1728   0.279E-01 0.678E-04
CGA:  28    -0.575139874162E+03   -0.34734E-02   -0.34763E-02  1728   0.111E-01 0.197E-03
CGA:  29    -0.575141868530E+03   -0.19944E-02   -0.19924E-02  1728   0.951E-02 0.270E-04
CGA:  30    -0.575143194386E+03   -0.13259E-02   -0.13262E-02  1728   0.894E-02-0.641E-04
CGA:  31    -0.575144074329E+03   -0.87994E-03   -0.87835E-03  1728   0.539E-02-0.334E-04
CGA:  32    -0.575144702664E+03   -0.62833E-03   -0.62909E-03  1728   0.334E-02 0.250E-04
CGA:  33    -0.575145292767E+03   -0.59010E-03   -0.58791E-03  1728   0.228E-02 0.496E-04
CGA:  34    -0.575145497851E+03   -0.20508E-03   -0.20519E-03  1728   0.154E-02 0.639E-05
CGA:  35    -0.575145697241E+03   -0.19939E-03   -0.19935E-03  1728   0.106E-02-0.164E-04
CGA:  36    -0.575145838856E+03   -0.14161E-03   -0.14172E-03  1728   0.488E-03-0.319E-04
SDA:  37    -0.575145921890E+03   -0.83034E-04   -0.84674E-04  1728   0.354E-03-0.347E-04
CGA:  38    -0.575145960842E+03   -0.38952E-04   -0.38958E-04  1728   0.210E-03 0.470E-06
CGA:  39    -0.575145983798E+03   -0.22956E-04   -0.22947E-04  1728   0.197E-03-0.475E-06
CGA:  40    -0.575146013364E+03   -0.29566E-04   -0.29626E-04  1728   0.636E-04-0.320E-05
CGA:  41    -0.575146027106E+03   -0.13742E-04   -0.14329E-04  1728   0.593E-04-0.611E-05
CGA:  42    -0.575146036505E+03   -0.93992E-05   -0.95637E-05  1728   0.762E-04-0.405E-05
   1 F= -.57514604E+03 E0= -.57513806E+03  d E =-.575146E+03  mag=    70.0000
       N       E                     dE             d eps       ncg     rms          ort
SDA:   1    -0.575142750918E+03    0.32762E-02    0.00000E+00  1728   0.178E-01 0.000E+00
CGA:   2    -0.575144155939E+03   -0.14050E-02   -0.14087E-02  1728   0.117E-01-0.121E-04
CGA:   3    -0.575145600968E+03   -0.14450E-02   -0.14452E-02  1728   0.484E-02 0.108E-04
CGA:   4    -0.575146240644E+03   -0.63968E-03   -0.63970E-03  1728   0.162E-02 0.859E-05
CGA:   5    -0.575146497347E+03   -0.25670E-03   -0.25677E-03  1728   0.419E-03-0.217E-05
CGA:   6    -0.575146560632E+03   -0.63285E-04   -0.63246E-04  1728   0.165E-03 0.222E-05
CGA:   7    -0.575146582755E+03   -0.22123E-04   -0.22124E-04  1728   0.713E-04 0.391E-06
CGA:   8    -0.575146589070E+03   -0.63153E-05   -0.63140E-05  1728   0.518E-04-0.549E-07
   2 F= -.57514659E+03 E0= -.57513862E+03  d E =-.552565E-03  mag=    70.0000
       N       E                     dE             d eps       ncg     rms          ort
SDA:   1    -0.575061785928E+03    0.84797E-01    0.00000E+00  1728   0.266E+00 0.000E+00
CGA:   2    -0.575110552106E+03   -0.48766E-01   -0.48764E-01  1728   0.212E+00 0.572E-04
CGA:   3    -0.575129100974E+03   -0.18549E-01   -0.18693E-01  1728   0.116E+00-0.219E-03
CGA:   4    -0.575141015548E+03   -0.11915E-01   -0.11927E-01  1728   0.389E-01 0.742E-04
CGA:   5    -0.575146046616E+03   -0.50311E-02   -0.50315E-02  1728   0.897E-02 0.562E-04
CGA:   6    -0.575147578684E+03   -0.15321E-02   -0.15324E-02  1728   0.309E-02-0.502E-05
CGA:   7    -0.575147885086E+03   -0.30640E-03   -0.30629E-03  1728   0.154E-02 0.428E-06
CGA:   8    -0.575148030604E+03   -0.14552E-03   -0.14545E-03  1728   0.844E-03-0.175E-06
CGA:   9    -0.575148143138E+03   -0.11253E-03   -0.11254E-03  1728   0.237E-03-0.146E-05
CGA:  10    -0.575148198784E+03   -0.55646E-04   -0.55627E-04  1728   0.182E-03 0.167E-06
CGA:  11    -0.575148220471E+03   -0.21687E-04   -0.21689E-04  1728   0.169E-03 0.988E-07
CGA:  12    -0.575148238774E+03   -0.18303E-04   -0.18318E-04  1728   0.815E-04 0.490E-06
CGA:  13    -0.575148253831E+03   -0.15057E-04   -0.15008E-04  1728   0.434E-04 0.976E-06
CGA:  14    -0.575148262423E+03   -0.85916E-05   -0.86358E-05  1728   0.312E-04-0.737E-06
   3 F= -.57514826E+03 E0= -.57514033E+03  d E =-.167335E-02  mag=    70.0000
