       N       E                     dE             d eps       ncg     rms          ort
DAV:   1     0.117611196439E+05    0.11761E+05   -0.45957E+05  2208   0.168E+03
DAV:   2     0.851628303734E+03   -0.10909E+05   -0.10484E+05  2208   0.523E+02
DAV:   3    -0.844128850263E+03   -0.16958E+04   -0.16366E+04  2208   0.189E+02
DAV:   4    -0.971215002801E+03   -0.12709E+03   -0.12195E+03  2208   0.541E+01
DAV:   5    -0.980370035333E+03   -0.91550E+01   -0.88384E+01  2208   0.118E+01
SDA:   6     0.195346533314E+02    0.99990E+03   -0.88384E+01  2208   0.841E+04 0.000E+00
CGA:   7    -0.551541609250E+03   -0.57108E+03   -0.82631E+03  2208   0.752E+04-0.143E+04
CGA:   8    -0.541181053949E+03    0.10361E+02   -0.24703E+03  2208   0.101E+05-0.762E+04
CGA:   9    -0.422046979106E+03    0.11913E+03   -0.45578E+03  2208   0.105E+05-0.664E+04
CGA:  10    -0.284616707289E+03    0.13743E+03   -0.49120E+03  2208   0.128E+05-0.986E+04
CGA:  11    -0.396274261166E+03   -0.11166E+03   -0.53303E+03  2208   0.873E+04-0.942E+04
CGA:  12    -0.470109074196E+03   -0.73835E+02   -0.34456E+03  2208   0.107E+05-0.120E+05
CGA:  13    -0.460677434903E+03    0.94316E+01   -0.42539E+03  2208   0.106E+05-0.103E+05
CGA:  14    -0.459106010006E+03    0.15714E+01   -0.41860E+03  2208   0.127E+05-0.122E+05
CGA:  15    -0.528742696216E+03   -0.69637E+02   -0.47568E+03  2208   0.826E+04-0.921E+04
CGA:  16    -0.614515154836E+03   -0.85772E+02   -0.28400E+03  2208   0.740E+04-0.891E+04
CGA:  17    -0.678470998701E+03   -0.63956E+02   -0.21550E+03  2208   0.374E+04-0.462E+04
CGA:  18    -0.740105146793E+03   -0.61634E+02   -0.96867E+02  2208   0.358E+04-0.543E+04
CGA:  19    -0.694906414455E+03    0.45199E+02   -0.12698E+03  2208   0.378E+04-0.267E+04
CGA:  20    -0.720254703983E+03   -0.25348E+02   -0.10077E+03  2208   0.500E+04-0.574E+04
CGA:  21    -0.688122085161E+03    0.32133E+02   -0.16088E+03  2208   0.385E+04-0.315E+04
CGA:  22    -0.744399130983E+03   -0.56277E+02   -0.94169E+02  2208   0.383E+04-0.565E+04
CGA:  23    -0.701563629580E+03    0.42836E+02   -0.12757E+03  2208   0.381E+04-0.276E+04
CGA:  24    -0.739773761837E+03   -0.38210E+02   -0.92788E+02  2208   0.432E+04-0.560E+04
CGA:  25    -0.701363004250E+03    0.38411E+02   -0.13746E+03  2208   0.379E+04-0.288E+04
CGA:  26    -0.752738249141E+03   -0.51375E+02   -0.87516E+02  2208   0.364E+04-0.539E+04
CGA:  27    -0.724931647289E+03    0.27807E+02   -0.10783E+03  2208   0.347E+04-0.271E+04
CGA:  28    -0.741614565344E+03   -0.16683E+02   -0.83335E+02  2208   0.441E+04-0.501E+04
CGA:  29    -0.717815858316E+03    0.23799E+02   -0.12600E+03  2208   0.355E+04-0.295E+04
CGA:  30    -0.755228368353E+03   -0.37413E+02   -0.79859E+02  2208   0.367E+04-0.501E+04
CGA:  31    -0.737683498233E+03    0.17545E+02   -0.98829E+02  2208   0.324E+04-0.273E+04
CGA:  32    -0.769534367690E+03   -0.31851E+02   -0.67509E+02  2208   0.273E+04-0.391E+04
CGA:  33    -0.757577221297E+03    0.11957E+02   -0.69555E+02  2208   0.259E+04-0.218E+04
CGA:  34    -0.775495618454E+03   -0.17918E+02   -0.53040E+02  2208   0.231E+04-0.302E+04
CGA:  35    -0.771017086107E+03    0.44785E+01   -0.53993E+02  2208   0.200E+04-0.183E+04
CGA:  36    -0.785421955688E+03   -0.14405E+02   -0.38461E+02  2208   0.150E+04-0.207E+04
CGA:  37    -0.788663646325E+03   -0.32417E+01   -0.30011E+02  2208   0.101E+04-0.111E+04
CGA:  38    -0.799401822917E+03   -0.10738E+02   -0.15008E+02  2208   0.195E+03-0.478E+03
CGA:  39    -0.801542644646E+03   -0.21408E+01   -0.21305E+01  2208   0.913E+01 0.115E+00
CGA:  40    -0.801866704662E+03   -0.32406E+00   -0.31694E+00  2208   0.189E+02 0.546E-01
CGA:  41    -0.798295446936E+03    0.35713E+01   -0.41250E+01  2208   0.921E+03-0.631E+02
CGA:  42    -0.795410344761E+03    0.28851E+01   -0.15127E+02  2208   0.131E+04-0.104E+04
CGA:  43    -0.792921405216E+03    0.24889E+01   -0.20534E+02  2208   0.167E+04-0.147E+04
CGA:  44    -0.781608661693E+03    0.11313E+02   -0.29811E+02  2208   0.275E+04-0.199E+04
CGA:  45    -0.763161291682E+03    0.18447E+02   -0.50065E+02  2208   0.440E+04-0.327E+04
CGA:  46    -0.732032375767E+03    0.31129E+02   -0.90813E+02  2208   0.463E+04-0.333E+04
CGA:  47    -0.730728401594E+03    0.13040E+01   -0.88876E+02  2208   0.514E+04-0.500E+04
CGA:  48    -0.728170370006E+03    0.25580E+01   -0.10221E+03  2208   0.437E+04-0.424E+04
CGA:  49    -0.750497491550E+03   -0.22327E+02   -0.77877E+02  2208   0.439E+04-0.527E+04
CGA:  50    -0.751158188694E+03   -0.66070E+00   -0.78684E+02  2208   0.409E+04-0.421E+04
CGA:  51    -0.762256051050E+03   -0.11098E+02   -0.67053E+02  2208   0.413E+04-0.464E+04
CGA:  52    -0.762134782529E+03    0.12127E+00   -0.69363E+02  2208   0.377E+04-0.379E+04
CGA:  53    -0.775441283321E+03   -0.13307E+02   -0.56813E+02  2208   0.329E+04-0.395E+04
CGA:  54    -0.781375648162E+03   -0.59344E+01   -0.49020E+02  2208   0.267E+04-0.299E+04
CGA:  55    -0.794806460440E+03   -0.13431E+02   -0.34204E+02  2208   0.148E+04-0.217E+04
CGA:  56    -0.802501335217E+03   -0.76949E+01   -0.16911E+02  2208   0.519E+03-0.892E+03
CGA:  57    -0.806227027109E+03   -0.37257E+01   -0.43872E+01  2208   0.202E+02-0.982E+02
CGA:  58    -0.806383438576E+03   -0.15641E+00   -0.15546E+00  2208   0.115E+01 0.593E-01
CGA:  59    -0.806462559767E+03   -0.79121E-01   -0.79771E-01  2208   0.561E+01-0.188E-01
CGA:  60    -0.806683761315E+03   -0.22120E+00   -0.22006E+00  2208   0.769E+01 0.322E+00
CGA:  61    -0.806913103224E+03   -0.22934E+00   -0.23245E+00  2208   0.392E+01 0.553E-01
CGA:  62    -0.807000552917E+03   -0.87450E-01   -0.90836E-01  2208   0.253E+01-0.285E-01
CGA:  63    -0.807038848042E+03   -0.38295E-01   -0.38769E-01  2208   0.818E+00-0.216E-01
CGA:  64    -0.807088862132E+03   -0.50014E-01   -0.49221E-01  2208   0.187E+01 0.284E-01
CGA:  65    -0.807146802353E+03   -0.57940E-01   -0.57845E-01  2208   0.213E+01-0.551E-02
CGA:  66    -0.807199063640E+03   -0.52261E-01   -0.53021E-01  2208   0.814E+00 0.209E-02
CGA:  67    -0.807216460076E+03   -0.17396E-01   -0.17512E-01  2208   0.522E+00-0.208E-02
CGA:  68    -0.807231135858E+03   -0.14676E-01   -0.14717E-01  2208   0.457E+00 0.106E-02
CGA:  69    -0.807250694867E+03   -0.19559E-01   -0.19563E-01  2208   0.520E+00-0.552E-03
CGA:  70    -0.807264850967E+03   -0.14156E-01   -0.14180E-01  2208   0.493E+00 0.338E-03
CGA:  71    -0.807276080740E+03   -0.11230E-01   -0.11232E-01  2208   0.190E+00-0.479E-03
CGA:  72    -0.807281175623E+03   -0.50949E-02   -0.50969E-02  2208   0.125E+00-0.254E-03
CGA:  73    -0.807287369115E+03   -0.61935E-02   -0.62035E-02  2208   0.316E+00-0.665E-03
CGA:  74    -0.807296466429E+03   -0.90973E-02   -0.90945E-02  2208   0.219E+00-0.105E-02
CGA:  75    -0.807302923950E+03   -0.64575E-02   -0.64601E-02  2208   0.116E+00-0.475E-03
CGA:  76    -0.807305473748E+03   -0.25498E-02   -0.25481E-02  2208   0.830E-01-0.429E-03
CGA:  77    -0.807308677989E+03   -0.32042E-02   -0.32059E-02  2208   0.901E-01-0.407E-03
CGA:  78    -0.807311952200E+03   -0.32742E-02   -0.32752E-02  2208   0.140E+00-0.422E-03
CGA:  79    -0.807315546512E+03   -0.35943E-02   -0.35916E-02  2208   0.631E-01-0.486E-03
CGA:  80    -0.807317451469E+03   -0.19050E-02   -0.19045E-02  2208   0.297E-01-0.212E-03
CGA:  81    -0.807318184133E+03   -0.73266E-03   -0.73204E-03  2208   0.341E-01-0.795E-04
CGA:  82    -0.807319662389E+03   -0.14783E-02   -0.14798E-02  2208   0.429E-01-0.147E-03
CGA:  83    -0.807321107266E+03   -0.14449E-02   -0.14449E-02  2208   0.344E-01-0.899E-04
CGA:  84    -0.807321856002E+03   -0.74874E-03   -0.74770E-03  2208   0.152E-01-0.343E-04
CGA:  85    -0.807322245033E+03   -0.38903E-03   -0.38905E-03  2208   0.115E-01-0.619E-05
CGA:  86    -0.807322701032E+03   -0.45600E-03   -0.45582E-03  2208   0.189E-01 0.209E-04
SDA:  87    -0.807323291609E+03   -0.59058E-03   -0.59057E-03  2208   0.164E-01 0.154E-04
CGA:  88    -0.807323520202E+03   -0.22859E-03   -0.22881E-03  2208   0.568E-02-0.428E-05
CGA:  89    -0.807323653556E+03   -0.13335E-03   -0.13349E-03  2208   0.352E-02 0.830E-05
CGA:  90    -0.807323773809E+03   -0.12025E-03   -0.12019E-03  2208   0.414E-02 0.213E-04
CGA:  91    -0.807324007504E+03   -0.23369E-03   -0.23198E-03  2208   0.958E-02 0.682E-04
CGA:  92    -0.807324362727E+03   -0.35522E-03   -0.35483E-03  2208   0.798E-02 0.109E-03
CGA:  93    -0.807324645392E+03   -0.28266E-03   -0.28243E-03  2208   0.272E-02 0.115E-03
CGA:  94    -0.807324784175E+03   -0.13878E-03   -0.13727E-03  2208   0.392E-02 0.896E-04
CGA:  95    -0.807324949395E+03   -0.16522E-03   -0.16434E-03  2208   0.911E-02 0.129E-03
CGA:  96    -0.807325213129E+03   -0.26373E-03   -0.26477E-03  2208   0.407E-02 0.199E-03
CGA:  97    -0.807325351476E+03   -0.13835E-03   -0.13842E-03  2208   0.223E-02 0.113E-03
CGA:  98    -0.807325410920E+03   -0.59443E-04   -0.59787E-04  2208   0.199E-02 0.425E-04
CGA:  99    -0.807325496106E+03   -0.85186E-04   -0.84739E-04  2208   0.234E-02 0.528E-04
CGA: 100    -0.807325631146E+03   -0.13504E-03   -0.13365E-03  2208   0.311E-02 0.636E-04
CGA: 101    -0.807325686637E+03   -0.55490E-04   -0.55875E-04  2208   0.155E-02 0.171E-04
CGA: 102    -0.807325727305E+03   -0.40668E-04   -0.40680E-04  2208   0.662E-03 0.116E-05
CGA: 103    -0.807325787439E+03   -0.60134E-04   -0.62492E-04  2208   0.201E-02-0.398E-04
CGA: 104    -0.807325841826E+03   -0.54387E-04   -0.54000E-04  2208   0.218E-02-0.431E-04
CGA: 105    -0.807325906916E+03   -0.65090E-04   -0.64781E-04  2208   0.150E-02-0.529E-04
CGA: 106    -0.807325938503E+03   -0.31587E-04   -0.31244E-04  2208   0.680E-03-0.243E-04
CGA: 107    -0.807325962113E+03   -0.23610E-04   -0.23610E-04  2208   0.109E-02-0.123E-04
CGA: 108    -0.807326031898E+03   -0.69785E-04   -0.70455E-04  2208   0.206E-02-0.230E-04
CGA: 109    -0.807326105506E+03   -0.73608E-04   -0.73598E-04  2208   0.117E-02-0.207E-04
CGA: 110    -0.807326125284E+03   -0.19778E-04   -0.19674E-04  2208   0.633E-03-0.599E-05
CGA: 111    -0.807326144558E+03   -0.19275E-04   -0.19240E-04  2208   0.413E-03-0.813E-05
CGA: 112    -0.807326189934E+03   -0.45375E-04   -0.47565E-04  2208   0.128E-02-0.283E-04
CGA: 113    -0.807326220242E+03   -0.30308E-04   -0.30089E-04  2208   0.122E-02-0.176E-04
CGA: 114    -0.807326251516E+03   -0.31274E-04   -0.31092E-04  2208   0.609E-03-0.158E-04
CGA: 115    -0.807326268683E+03   -0.17167E-04   -0.17109E-04  2208   0.333E-03-0.718E-05
CGA: 116    -0.807326284934E+03   -0.16251E-04   -0.16257E-04  2208   0.616E-03-0.182E-05
CGA: 117    -0.807326311339E+03   -0.26405E-04   -0.26387E-04  2208   0.144E-02 0.229E-05
SDA: 118    -0.807326358888E+03   -0.47549E-04   -0.47608E-04  2208   0.678E-03 0.819E-05
CGA: 119    -0.807326371835E+03   -0.12947E-04   -0.12956E-04  2208   0.378E-03-0.771E-06
CGA: 120    -0.807326380467E+03   -0.86316E-05   -0.86525E-05  2208   0.324E-03 0.143E-06
CGA: 121    -0.807326398237E+03   -0.17770E-04   -0.17680E-04  2208   0.516E-03 0.354E-05
CGA: 122    -0.807326416669E+03   -0.18431E-04   -0.18443E-04  2208   0.652E-03 0.401E-05
CGA: 123    -0.807326435749E+03   -0.19080E-04   -0.19121E-04  2208   0.275E-03 0.341E-05
CGA: 124    -0.807326448518E+03   -0.12769E-04   -0.12753E-04  2208   0.256E-03 0.236E-06
CGA: 125    -0.807326456432E+03   -0.79132E-05   -0.79079E-05  2208   0.508E-03-0.208E-05
CGA: 126    -0.807326480241E+03   -0.23809E-04   -0.23869E-04  2208   0.524E-03-0.700E-05
CGA: 127    -0.807326501042E+03   -0.20802E-04   -0.20824E-04  2208   0.254E-03-0.934E-05
CGA: 128    -0.807326511252E+03   -0.10210E-04   -0.10233E-04  2208   0.233E-03-0.856E-05
CGA: 129    -0.807326526871E+03   -0.15618E-04   -0.16181E-04  2208   0.527E-03-0.180E-04
CGA: 130    -0.807326550954E+03   -0.24083E-04   -0.24383E-04  2208   0.847E-03-0.293E-04
CGA: 131    -0.807326566761E+03   -0.15807E-04   -0.15504E-04  2208   0.455E-03-0.165E-04
CGA: 132    -0.807326578196E+03   -0.11435E-04   -0.11323E-04  2208   0.149E-03-0.887E-05
CGA: 133    -0.807326583689E+03   -0.54931E-05   -0.54941E-05  2208   0.291E-03 0.307E-06
CGA: 134    -0.807326599559E+03   -0.15870E-04   -0.15691E-04  2208   0.419E-03 0.118E-04
CGA: 135    -0.807326622183E+03   -0.22624E-04   -0.22457E-04  2208   0.326E-03 0.131E-04
CGA: 136    -0.807326627574E+03   -0.53906E-05   -0.54470E-05  2208   0.191E-03 0.107E-05
   1 F= -.80732663E+03 E0= -.80724268E+03  d E =-.807327E+03  mag=    66.0000
       N       E                     dE             d eps       ncg     rms          ort
SDA:   1    -0.807327682253E+03   -0.10601E-02    0.00000E+00  2208   0.352E+00 0.000E+00
CGA:   2    -0.807332862213E+03   -0.51800E-02   -0.51786E-02  2208   0.787E-01 0.680E-04
CGA:   3    -0.807333906803E+03   -0.10446E-02   -0.10433E-02  2208   0.143E-01 0.756E-04
CGA:   4    -0.807334508571E+03   -0.60177E-03   -0.60176E-03  2208   0.200E-01 0.137E-05
CGA:   5    -0.807335180393E+03   -0.67182E-03   -0.67181E-03  2208   0.249E-01-0.626E-05
CGA:   6    -0.807336117587E+03   -0.93719E-03   -0.93721E-03  2208   0.911E-02-0.148E-04
CGA:   7    -0.807336371006E+03   -0.25342E-03   -0.25323E-03  2208   0.414E-02-0.200E-04
CGA:   8    -0.807336534213E+03   -0.16321E-03   -0.16333E-03  2208   0.309E-02-0.342E-04
CGA:   9    -0.807336738053E+03   -0.20384E-03   -0.20600E-03  2208   0.432E-02-0.701E-04
CGA:  10    -0.807336820051E+03   -0.81999E-04   -0.81494E-04  2208   0.283E-02-0.296E-04
CGA:  11    -0.807336877540E+03   -0.57489E-04   -0.57143E-04  2208   0.422E-03-0.228E-04
CGA:  12    -0.807336894410E+03   -0.16870E-04   -0.16904E-04  2208   0.357E-03-0.809E-05
CGA:  13    -0.807336920665E+03   -0.26255E-04   -0.26711E-04  2208   0.676E-03-0.118E-04
CGA:  14    -0.807336939827E+03   -0.19162E-04   -0.19098E-04  2208   0.503E-03-0.764E-05
CGA:  15    -0.807336951625E+03   -0.11798E-04   -0.11746E-04  2208   0.175E-03-0.408E-05
CGA:  16    -0.807336957049E+03   -0.54243E-05   -0.54181E-05  2208   0.161E-03-0.149E-05
   2 F= -.80733696E+03 E0= -.80725307E+03  d E =-.103295E-01  mag=    66.0000
       N       E                     dE             d eps       ncg     rms          ort
SDA:   1    -0.780793746009E+03    0.26543E+02    0.00000E+00  2208   0.163E+03 0.000E+00
CGA:   2    -0.783585979433E+03   -0.27922E+01   -0.26780E+01  2208   0.135E+03 0.162E+01
CGA:   3    -0.793850399812E+03   -0.10264E+02   -0.10212E+02  2208   0.192E+03 0.122E+01
CGA:   4    -0.800148416387E+03   -0.62980E+01   -0.62476E+01  2208   0.890E+02-0.317E+01
CGA:   5    -0.801959812514E+03   -0.18114E+01   -0.18215E+01  2208   0.625E+02-0.322E+00
CGA:   6    -0.803409258131E+03   -0.14494E+01   -0.13478E+01  2208   0.371E+02 0.147E+01
CGA:   7    -0.804759085119E+03   -0.13498E+01   -0.13497E+01  2208   0.753E+02-0.723E+00
CGA:   8    -0.806387827415E+03   -0.16287E+01   -0.16262E+01  2208   0.304E+02 0.465E-01
CGA:   9    -0.807085536425E+03   -0.69771E+00   -0.69534E+00  2208   0.182E+02-0.837E-02
CGA:  10    -0.807324472141E+03   -0.23894E+00   -0.24349E+00  2208   0.641E+01-0.259E+00
CGA:  11    -0.807466481735E+03   -0.14201E+00   -0.14226E+00  2208   0.340E+01 0.378E-03
CGA:  12    -0.807628122049E+03   -0.16164E+00   -0.16162E+00  2208   0.799E+01 0.147E-02
CGA:  13    -0.807777191745E+03   -0.14907E+00   -0.15271E+00  2208   0.429E+01-0.528E-01
CGA:  14    -0.807889417080E+03   -0.11223E+00   -0.11228E+00  2208   0.131E+01 0.167E-02
CGA:  15    -0.807919617037E+03   -0.30200E-01   -0.30331E-01  2208   0.624E+00 0.136E-02
CGA:  16    -0.807934483847E+03   -0.14867E-01   -0.14905E-01  2208   0.586E+00 0.104E-02
CGA:  17    -0.807955731929E+03   -0.21248E-01   -0.21210E-01  2208   0.629E+00 0.523E-02
CGA:  18    -0.807979166024E+03   -0.23434E-01   -0.23332E-01  2208   0.940E+00 0.133E-01
CGA:  19    -0.807997063200E+03   -0.17897E-01   -0.17890E-01  2208   0.189E+00 0.339E-03
CGA:  20    -0.808002449167E+03   -0.53860E-02   -0.53897E-02  2208   0.780E-01 0.550E-03
CGA:  21    -0.808006566649E+03   -0.41175E-02   -0.41137E-02  2208   0.162E+00 0.136E-03
CGA:  22    -0.808011302266E+03   -0.47356E-02   -0.47418E-02  2208   0.206E+00 0.660E-03
CGA:  23    -0.808017810436E+03   -0.65082E-02   -0.65086E-02  2208   0.962E-01-0.311E-03
CGA:  24    -0.808020410008E+03   -0.25996E-02   -0.26036E-02  2208   0.494E-01 0.213E-03
CGA:  25    -0.808021481990E+03   -0.10720E-02   -0.10737E-02  2208   0.329E-01 0.452E-04
CGA:  26    -0.808022800814E+03   -0.13188E-02   -0.13166E-02  2208   0.365E-01 0.224E-03
CGA:  27    -0.808024259669E+03   -0.14589E-02   -0.14564E-02  2208   0.599E-01 0.300E-03
CGA:  28    -0.808025727408E+03   -0.14677E-02   -0.14720E-02  2208   0.280E-01 0.350E-03
CGA:  29    -0.808026385517E+03   -0.65811E-03   -0.65946E-03  2208   0.922E-02 0.146E-03
CGA:  30    -0.808026856860E+03   -0.47134E-03   -0.46963E-03  2208   0.153E-01 0.832E-04
CGA:  31    -0.808027266617E+03   -0.40976E-03   -0.40999E-03  2208   0.180E-01 0.360E-04
SDA:  32    -0.808028054810E+03   -0.78819E-03   -0.78786E-03  2208   0.149E-01 0.232E-04
CGA:  33    -0.808028310528E+03   -0.25572E-03   -0.25534E-03  2208   0.606E-02-0.219E-04
CGA:  34    -0.808028426949E+03   -0.11642E-03   -0.11600E-03  2208   0.324E-02-0.384E-04
CGA:  35    -0.808028622162E+03   -0.19521E-03   -0.19906E-03  2208   0.699E-02-0.129E-03
CGA:  36    -0.808028858052E+03   -0.23589E-03   -0.23627E-03  2208   0.104E-01-0.158E-03
CGA:  37    -0.808029232463E+03   -0.37441E-03   -0.37526E-03  2208   0.501E-02-0.211E-03
CGA:  38    -0.808029410139E+03   -0.17768E-03   -0.17775E-03  2208   0.229E-02-0.241E-04
CGA:  39    -0.808029543749E+03   -0.13361E-03   -0.13098E-03  2208   0.416E-02 0.106E-03
CGA:  40    -0.808029704098E+03   -0.16035E-03   -0.15998E-03  2208   0.589E-02 0.159E-03
CGA:  41    -0.808029842808E+03   -0.13871E-03   -0.14034E-03  2208   0.373E-02 0.142E-03
CGA:  42    -0.808029975689E+03   -0.13288E-03   -0.13280E-03  2208   0.180E-02 0.991E-04
CGA:  43    -0.808030041957E+03   -0.66268E-04   -0.66290E-04  2208   0.237E-02-0.128E-04
CGA:  44    -0.808030111931E+03   -0.69974E-04   -0.69714E-04  2208   0.228E-02-0.595E-04
CGA:  45    -0.808030259918E+03   -0.14799E-03   -0.15549E-03  2208   0.186E-02-0.210E-03
CGA:  46    -0.808030297181E+03   -0.37263E-04   -0.36622E-04  2208   0.110E-02-0.471E-04
CGA:  47    -0.808030317092E+03   -0.19911E-04   -0.19675E-04  2208   0.522E-03-0.154E-04
CGA:  48    -0.808030353840E+03   -0.36747E-04   -0.36341E-04  2208   0.957E-03 0.972E-05
CGA:  49    -0.808030406886E+03   -0.53046E-04   -0.52346E-04  2208   0.764E-03 0.383E-04
CGA:  50    -0.808030424379E+03   -0.17494E-04   -0.17763E-04  2208   0.558E-03 0.173E-04
CGA:  51    -0.808030436546E+03   -0.12167E-04   -0.12414E-04  2208   0.211E-03 0.163E-04
CGA:  52    -0.808030443615E+03   -0.70686E-05   -0.71037E-05  2208   0.247E-03 0.116E-04
CGA:  53    -0.808030454034E+03   -0.10419E-04   -0.10331E-04  2208   0.435E-03 0.190E-04
CGA:  54    -0.808030472946E+03   -0.18913E-04   -0.18760E-04  2208   0.252E-03 0.330E-04
CGA:  55    -0.808030482142E+03   -0.91957E-05   -0.92174E-05  2208   0.129E-03 0.116E-04
   3 F= -.80803048E+03 E0= -.80794602E+03  d E =-.693525E+00  mag=    66.0000
       N       E                     dE             d eps       ncg     rms          ort
SDA:   1    -0.798626631073E+03    0.94038E+01    0.00000E+00  2208   0.652E+02 0.000E+00
CGA:   2    -0.799689327164E+03   -0.10627E+01   -0.10268E+01  2208   0.453E+02 0.108E+01
CGA:   3    -0.803091351984E+03   -0.34020E+01   -0.34356E+01  2208   0.692E+02-0.880E+00
CGA:   4    -0.805088274085E+03   -0.19969E+01   -0.19925E+01  2208   0.479E+02-0.157E+00
CGA:   5    -0.806063781660E+03   -0.97551E+00   -0.95836E+00  2208   0.179E+02 0.298E+00
CGA:   6    -0.806704568089E+03   -0.64079E+00   -0.64070E+00  2208   0.153E+02-0.400E+00
CGA:   7    -0.807078674247E+03   -0.37411E+00   -0.37079E+00  2208   0.185E+02-0.258E-01
CGA:   8    -0.807739684261E+03   -0.66101E+00   -0.66093E+00  2208   0.983E+01 0.662E-01
CGA:   9    -0.807990792530E+03   -0.25111E+00   -0.25030E+00  2208   0.458E+01-0.115E-01
CGA:  10    -0.808060503122E+03   -0.69711E-01   -0.70357E-01  2208   0.144E+01-0.246E-01
CGA:  11    -0.808106593822E+03   -0.46091E-01   -0.46102E-01  2208   0.168E+01 0.362E-02
CGA:  12    -0.808152136140E+03   -0.45542E-01   -0.45607E-01  2208   0.151E+01 0.293E-02
CGA:  13    -0.808208757569E+03   -0.56621E-01   -0.56603E-01  2208   0.101E+01 0.276E-02
CGA:  14    -0.808231734746E+03   -0.22977E-01   -0.23005E-01  2208   0.559E+00 0.828E-04
CGA:  15    -0.808240525984E+03   -0.87912E-02   -0.88700E-02  2208   0.158E+00-0.273E-02
CGA:  16    -0.808246557225E+03   -0.60312E-02   -0.60244E-02  2208   0.170E+00 0.723E-03
CGA:  17    -0.808252483463E+03   -0.59262E-02   -0.59247E-02  2208   0.251E+00 0.393E-03
CGA:  18    -0.808261643393E+03   -0.91599E-02   -0.91510E-02  2208   0.149E+00 0.144E-02
CGA:  19    -0.808264504806E+03   -0.28614E-02   -0.28644E-02  2208   0.789E-01-0.338E-04
CGA:  20    -0.808266184597E+03   -0.16798E-02   -0.16806E-02  2208   0.279E-01-0.254E-04
CGA:  21    -0.808267492368E+03   -0.13078E-02   -0.13073E-02  2208   0.413E-01 0.102E-04
CGA:  22    -0.808269061567E+03   -0.15692E-02   -0.15693E-02  2208   0.620E-01-0.790E-04
CGA:  23    -0.808270839238E+03   -0.17777E-02   -0.17785E-02  2208   0.448E-01-0.869E-05
CGA:  24    -0.808271984163E+03   -0.11449E-02   -0.11458E-02  2208   0.243E-01-0.115E-05
CGA:  25    -0.808272435114E+03   -0.45095E-03   -0.45179E-03  2208   0.898E-02-0.438E-05
CGA:  26    -0.808272988423E+03   -0.55331E-03   -0.54933E-03  2208   0.135E-01 0.129E-03
CGA:  27    -0.808273468734E+03   -0.48031E-03   -0.47995E-03  2208   0.226E-01 0.149E-03
CGA:  28    -0.808274085805E+03   -0.61707E-03   -0.61851E-03  2208   0.834E-02 0.223E-03
CGA:  29    -0.808274296533E+03   -0.21073E-03   -0.21122E-03  2208   0.599E-02 0.605E-04
CGA:  30    -0.808274449341E+03   -0.15281E-03   -0.15294E-03  2208   0.317E-02 0.143E-04
CGA:  31    -0.808274686222E+03   -0.23688E-03   -0.23878E-03  2208   0.813E-02-0.450E-04
SDA:  32    -0.808274890917E+03   -0.20469E-03   -0.20426E-03  2208   0.689E-02-0.561E-04
CGA:  33    -0.808274981774E+03   -0.90858E-04   -0.90677E-04  2208   0.214E-02-0.165E-05
CGA:  34    -0.808275037739E+03   -0.55964E-04   -0.55900E-04  2208   0.998E-03-0.101E-04
CGA:  35    -0.808275118204E+03   -0.80465E-04   -0.81986E-04  2208   0.233E-02-0.319E-04
CGA:  36    -0.808275281247E+03   -0.16304E-03   -0.16542E-03  2208   0.227E-02-0.632E-04
CGA:  37    -0.808275359413E+03   -0.78165E-04   -0.78139E-04  2208   0.103E-02-0.205E-04
CGA:  38    -0.808275384679E+03   -0.25266E-04   -0.25289E-04  2208   0.117E-02 0.841E-06
CGA:  39    -0.808275431070E+03   -0.46391E-04   -0.46343E-04  2208   0.125E-02 0.127E-04
CGA:  40    -0.808275507009E+03   -0.75939E-04   -0.75155E-04  2208   0.157E-02 0.332E-04
CGA:  41    -0.808275545861E+03   -0.38852E-04   -0.39066E-04  2208   0.845E-03 0.157E-04
CGA:  42    -0.808275567092E+03   -0.21231E-04   -0.21315E-04  2208   0.467E-03 0.638E-05
CGA:  43    -0.808275601715E+03   -0.34623E-04   -0.34530E-04  2208   0.818E-03 0.168E-05
CGA:  44    -0.808275633779E+03   -0.32064E-04   -0.32066E-04  2208   0.107E-02-0.283E-05
CGA:  45    -0.808275654759E+03   -0.20980E-04   -0.20917E-04  2208   0.419E-03-0.359E-05
CGA:  46    -0.808275668601E+03   -0.13842E-04   -0.13831E-04  2208   0.173E-03-0.355E-05
CGA:  47    -0.808275680933E+03   -0.12332E-04   -0.12463E-04  2208   0.346E-03-0.441E-05
CGA:  48    -0.808275694584E+03   -0.13651E-04   -0.13656E-04  2208   0.553E-03-0.340E-05
CGA:  49    -0.808275708744E+03   -0.14159E-04   -0.14134E-04  2208   0.169E-03-0.275E-05
CGA:  50    -0.808275713646E+03   -0.49026E-05   -0.49072E-05  2208   0.132E-03-0.139E-06
   4 F= -.80827571E+03 E0= -.80819553E+03  d E =-.245232E+00  mag=    66.0000
       N       E                     dE             d eps       ncg     rms          ort
SDA:   1    -0.779154703193E+03    0.29121E+02    0.00000E+00  2208   0.157E+03 0.000E+00
CGA:   2    -0.783513645182E+03   -0.43589E+01   -0.42450E+01  2208   0.195E+03-0.264E+01
CGA:   3    -0.792320676946E+03   -0.88070E+01   -0.88605E+01  2208   0.181E+03-0.416E+01
CGA:   4    -0.798568800158E+03   -0.62481E+01   -0.62453E+01  2208   0.136E+03-0.657E+00
CGA:   5    -0.801452312962E+03   -0.28835E+01   -0.27375E+01  2208   0.744E+02 0.132E+01
CGA:   6    -0.803318950342E+03   -0.18666E+01   -0.16886E+01  2208   0.435E+02 0.171E+01
CGA:   7    -0.804287077078E+03   -0.96813E+00   -0.93323E+00  2208   0.471E+02 0.340E+00
CGA:   8    -0.805965783125E+03   -0.16787E+01   -0.16784E+01  2208   0.611E+02 0.211E+00
CGA:   9    -0.806997291889E+03   -0.10315E+01   -0.10515E+01  2208   0.374E+02-0.549E+00
CGA:  10    -0.807679506199E+03   -0.68221E+00   -0.67582E+00  2208   0.105E+02 0.129E+00
CGA:  11    -0.807814174559E+03   -0.13467E+00   -0.13647E+00  2208   0.536E+01-0.991E-01
CGA:  12    -0.807963039702E+03   -0.14887E+00   -0.14924E+00  2208   0.414E+01 0.351E-01
CGA:  13    -0.808061878615E+03   -0.98839E-01   -0.98566E-01  2208   0.580E+01-0.522E-02
CGA:  14    -0.808232371701E+03   -0.17049E+00   -0.17092E+00  2208   0.418E+01 0.988E-01
CGA:  15    -0.808322019174E+03   -0.89647E-01   -0.91702E-01  2208   0.340E+01 0.142E-01
CGA:  16    -0.808378033763E+03   -0.56015E-01   -0.56090E-01  2208   0.672E+00-0.187E-02
CGA:  17    -0.808393425102E+03   -0.15391E-01   -0.15451E-01  2208   0.573E+00 0.162E-02
CGA:  18    -0.808408171947E+03   -0.14747E-01   -0.14811E-01  2208   0.513E+00 0.574E-02
CGA:  19    -0.808428989685E+03   -0.20818E-01   -0.20684E-01  2208   0.768E+00 0.974E-02
CGA:  20    -0.808449620953E+03   -0.20631E-01   -0.20646E-01  2208   0.546E+00 0.142E-02
CGA:  21    -0.808463722593E+03   -0.14102E-01   -0.14135E-01  2208   0.203E+00 0.282E-02
CGA:  22    -0.808467547275E+03   -0.38247E-02   -0.38367E-02  2208   0.127E+00-0.779E-04
CGA:  23    -0.808471866278E+03   -0.43190E-02   -0.43156E-02  2208   0.104E+00 0.416E-03
CGA:  24    -0.808477441217E+03   -0.55749E-02   -0.55409E-02  2208   0.236E+00 0.133E-02
CGA:  25    -0.808482981934E+03   -0.55407E-02   -0.55569E-02  2208   0.130E+00 0.385E-03
CGA:  26    -0.808487878194E+03   -0.48963E-02   -0.48889E-02  2208   0.583E-01 0.684E-03
CGA:  27    -0.808489164385E+03   -0.12862E-02   -0.12888E-02  2208   0.438E-01 0.103E-03
CGA:  28    -0.808490644091E+03   -0.14797E-02   -0.14790E-02  2208   0.421E-01 0.202E-03
CGA:  29    -0.808492811543E+03   -0.21675E-02   -0.21567E-02  2208   0.655E-01 0.486E-03
CGA:  30    -0.808494498515E+03   -0.16870E-02   -0.16900E-02  2208   0.367E-01 0.321E-03
CGA:  31    -0.808495584572E+03   -0.10861E-02   -0.10863E-02  2208   0.179E-01 0.134E-03
SDA:  32    -0.808496006830E+03   -0.42226E-03   -0.42216E-03  2208   0.157E-01-0.209E-04
CGA:  33    -0.808496299308E+03   -0.29248E-03   -0.29202E-03  2208   0.886E-02-0.422E-04
CGA:  34    -0.808496808159E+03   -0.50885E-03   -0.51407E-03  2208   0.150E-01-0.187E-03
CGA:  35    -0.808497532614E+03   -0.72446E-03   -0.72948E-03  2208   0.170E-01-0.281E-03
CGA:  36    -0.808497933059E+03   -0.40044E-03   -0.39943E-03  2208   0.894E-02-0.117E-03
CGA:  37    -0.808498256306E+03   -0.32325E-03   -0.32325E-03  2208   0.501E-02-0.265E-05
CGA:  38    -0.808498609352E+03   -0.35305E-03   -0.34747E-03  2208   0.661E-02 0.148E-03
CGA:  39    -0.808499088467E+03   -0.47911E-03   -0.47064E-03  2208   0.597E-02 0.240E-03
CGA:  40    -0.808499263764E+03   -0.17530E-03   -0.17570E-03  2208   0.369E-02 0.522E-04
CGA:  41    -0.808499382663E+03   -0.11890E-03   -0.11886E-03  2208   0.339E-02-0.105E-04
CGA:  42    -0.808499605343E+03   -0.22268E-03   -0.22617E-03  2208   0.446E-02-0.110E-03
CGA:  43    -0.808499769772E+03   -0.16443E-03   -0.16455E-03  2208   0.544E-02-0.833E-04
CGA:  44    -0.808499895115E+03   -0.12534E-03   -0.12456E-03  2208   0.161E-02-0.613E-04
CGA:  45    -0.808499970970E+03   -0.75855E-04   -0.75849E-04  2208   0.994E-03-0.188E-06
CGA:  46    -0.808500041212E+03   -0.70241E-04   -0.68419E-04  2208   0.184E-02 0.557E-04
CGA:  47    -0.808500107633E+03   -0.66421E-04   -0.66685E-04  2208   0.156E-02 0.645E-04
CGA:  48    -0.808500155225E+03   -0.47592E-04   -0.48010E-04  2208   0.525E-03 0.493E-04
CGA:  49    -0.808500183496E+03   -0.28271E-04   -0.27952E-04  2208   0.625E-03 0.221E-04
CGA:  50    -0.808500207320E+03   -0.23824E-04   -0.23843E-04  2208   0.883E-03 0.974E-05
CGA:  51    -0.808500241595E+03   -0.34275E-04   -0.34276E-04  2208   0.714E-03 0.750E-05
CGA:  52    -0.808500266452E+03   -0.24857E-04   -0.24846E-04  2208   0.319E-03-0.282E-05
CGA:  53    -0.808500278268E+03   -0.11817E-04   -0.11809E-04  2208   0.347E-03-0.821E-05
CGA:  54    -0.808500290298E+03   -0.12029E-04   -0.11993E-04  2208   0.339E-03-0.142E-04
CGA:  55    -0.808500317995E+03   -0.27697E-04   -0.30145E-04  2208   0.301E-03-0.450E-04
CGA:  56    -0.808500327973E+03   -0.99785E-05   -0.99469E-05  2208   0.225E-03-0.125E-04
   5 F= -.80850033E+03 E0= -.80843122E+03  d E =-.224614E+00  mag=    66.0000
       N       E                     dE             d eps       ncg     rms          ort
SDA:   1    -0.804920818813E+03    0.35795E+01    0.00000E+00  2208   0.142E+02 0.000E+00
CGA:   2    -0.805952358975E+03   -0.10315E+01   -0.10345E+01  2208   0.363E+02-0.542E-01
CGA:   3    -0.807087849758E+03   -0.11355E+01   -0.11373E+01  2208   0.204E+02 0.526E-01
CGA:   4    -0.807530168843E+03   -0.44232E+00   -0.47762E+00  2208   0.752E+01-0.492E+00
CGA:   5    -0.807834353549E+03   -0.30418E+00   -0.30425E+00  2208   0.664E+01-0.241E-01
CGA:   6    -0.808037273097E+03   -0.20292E+00   -0.20289E+00  2208   0.578E+01-0.118E-03
CGA:   7    -0.808331196812E+03   -0.29392E+00   -0.29472E+00  2208   0.319E+01-0.500E-01
CGA:   8    -0.808435255235E+03   -0.10406E+00   -0.10418E+00  2208   0.673E+00 0.471E-02
CGA:   9    -0.808468492430E+03   -0.33237E-01   -0.33249E-01  2208   0.608E+00-0.708E-03
CGA:  10    -0.808505642483E+03   -0.37150E-01   -0.37083E-01  2208   0.590E+00 0.283E-02
CGA:  11    -0.808525740590E+03   -0.20098E-01   -0.20109E-01  2208   0.334E+00 0.641E-03
CGA:  12    -0.808532260450E+03   -0.65199E-02   -0.65240E-02  2208   0.642E-01 0.338E-05
CGA:  13    -0.808535812551E+03   -0.35521E-02   -0.35553E-02  2208   0.101E+00-0.141E-03
CGA:  14    -0.808539156888E+03   -0.33443E-02   -0.33448E-02  2208   0.108E+00 0.353E-04
CGA:  15    -0.808543304994E+03   -0.41481E-02   -0.41485E-02  2208   0.476E-01 0.101E-03
CGA:  16    -0.808545190130E+03   -0.18851E-02   -0.18852E-02  2208   0.148E-01 0.676E-04
CGA:  17    -0.808546065807E+03   -0.87568E-03   -0.87511E-03  2208   0.249E-01 0.306E-04
CGA:  18    -0.808547203288E+03   -0.11375E-02   -0.11368E-02  2208   0.338E-01 0.120E-03
CGA:  19    -0.808548466006E+03   -0.12627E-02   -0.12632E-02  2208   0.148E-01 0.952E-04
CGA:  20    -0.808549097958E+03   -0.63195E-03   -0.63190E-03  2208   0.925E-02 0.244E-04
CGA:  21    -0.808549400775E+03   -0.30282E-03   -0.30287E-03  2208   0.114E-01-0.439E-05
CGA:  22    -0.808549916636E+03   -0.51586E-03   -0.51598E-03  2208   0.130E-01-0.325E-04
CGA:  23    -0.808550583456E+03   -0.66682E-03   -0.66722E-03  2208   0.767E-02-0.488E-04
CGA:  24    -0.808550860247E+03   -0.27679E-03   -0.27671E-03  2208   0.413E-02-0.183E-04
CGA:  25    -0.808550990919E+03   -0.13067E-03   -0.13073E-03  2208   0.373E-02 0.428E-05
CGA:  26    -0.808551196874E+03   -0.20595E-03   -0.20555E-03  2208   0.427E-02 0.275E-04
CGA:  27    -0.808551420020E+03   -0.22315E-03   -0.22280E-03  2208   0.269E-02 0.334E-04
CGA:  28    -0.808551490959E+03   -0.70939E-04   -0.71038E-04  2208   0.183E-02 0.620E-05
CGA:  29    -0.808551545232E+03   -0.54273E-04   -0.54293E-04  2208   0.103E-02-0.447E-06
CGA:  30    -0.808551616484E+03   -0.71252E-04   -0.71596E-04  2208   0.166E-02-0.127E-04
CGA:  31    -0.808551695648E+03   -0.79164E-04   -0.79249E-04  2208   0.133E-02-0.140E-04
SDA:  32    -0.808551726582E+03   -0.30934E-04   -0.30851E-04  2208   0.527E-03-0.533E-05
CGA:  33    -0.808551739192E+03   -0.12610E-04   -0.12636E-04  2208   0.361E-03 0.938E-06
CGA:  34    -0.808551757671E+03   -0.18479E-04   -0.18431E-04  2208   0.596E-03 0.415E-05
CGA:  35    -0.808551792607E+03   -0.34937E-04   -0.34751E-04  2208   0.681E-03 0.106E-04
CGA:  36    -0.808551811439E+03   -0.18832E-04   -0.18881E-04  2208   0.365E-03 0.273E-05
CGA:  37    -0.808551821016E+03   -0.95774E-05   -0.95646E-05  2208   0.150E-03-0.136E-05
CGA:  38    -0.808551832427E+03   -0.11411E-04   -0.11738E-04  2208   0.253E-03-0.894E-05
CGA:  39    -0.808551850920E+03   -0.18493E-04   -0.19206E-04  2208   0.331E-03-0.190E-04
CGA:  40    -0.808551862883E+03   -0.11963E-04   -0.11912E-04  2208   0.225E-03-0.100E-04
CGA:  41    -0.808551867448E+03   -0.45646E-05   -0.45302E-05  2208   0.962E-04-0.196E-05
   6 F= -.80855187E+03 E0= -.80848761E+03  d E =-.515395E-01  mag=    66.0000
       N       E                     dE             d eps       ncg     rms          ort
SDA:   1    -0.780149841657E+03    0.28402E+02    0.00000E+00  2208   0.119E+03 0.000E+00
CGA:   2    -0.786326963132E+03   -0.61771E+01   -0.63546E+01  2208   0.237E+03-0.106E+02
CGA:   3    -0.797277390582E+03   -0.10950E+02   -0.11035E+02  2208   0.138E+03-0.872E+01
CGA:   4    -0.800485619103E+03   -0.32082E+01   -0.31130E+01  2208   0.643E+02 0.116E+00
CGA:   5    -0.802593363909E+03   -0.21077E+01   -0.21007E+01  2208   0.608E+02 0.197E+00
CGA:   6    -0.804378108202E+03   -0.17847E+01   -0.17973E+01  2208   0.484E+02-0.489E-01
CGA:   7    -0.806623339414E+03   -0.22452E+01   -0.22471E+01  2208   0.369E+02-0.268E+00
CGA:   8    -0.807367295048E+03   -0.74396E+00   -0.73058E+00  2208   0.191E+02 0.353E+00
CGA:   9    -0.807800064877E+03   -0.43277E+00   -0.38975E+00  2208   0.531E+01 0.140E+01
CGA:  10    -0.807943387747E+03   -0.14332E+00   -0.14333E+00  2208   0.591E+01-0.536E-03
CGA:  11    -0.808128829020E+03   -0.18544E+00   -0.18759E+00  2208   0.549E+01 0.814E-01
CGA:  12    -0.808328127574E+03   -0.19930E+00   -0.19997E+00  2208   0.594E+01 0.102E+00
CGA:  13    -0.808453431958E+03   -0.12530E+00   -0.12907E+00  2208   0.192E+01-0.637E-01
CGA:  14    -0.808500931309E+03   -0.47499E-01   -0.48001E-01  2208   0.616E+00-0.207E-03
CGA:  15    -0.808518313571E+03   -0.17382E-01   -0.17459E-01  2208   0.589E+00 0.186E-02
CGA:  16    -0.808540836737E+03   -0.22523E-01   -0.22503E-01  2208   0.661E+00 0.732E-02
CGA:  17    -0.808572124515E+03   -0.31288E-01   -0.31129E-01  2208   0.647E+00 0.114E-01
CGA:  18    -0.808591714520E+03   -0.19590E-01   -0.19754E-01  2208   0.328E+00 0.621E-02
CGA:  19    -0.808599846119E+03   -0.81316E-02   -0.81707E-02  2208   0.118E+00 0.720E-04
CGA:  20    -0.808604225068E+03   -0.43789E-02   -0.43783E-02  2208   0.138E+00 0.408E-03
CGA:  21    -0.808610420056E+03   -0.61950E-02   -0.61534E-02  2208   0.152E+00 0.348E-02
CGA:  22    -0.808620114656E+03   -0.96946E-02   -0.96379E-02  2208   0.127E+00 0.200E-02
CGA:  23    -0.808624575012E+03   -0.44604E-02   -0.44636E-02  2208   0.101E+00 0.386E-03
CGA:  24    -0.808627063710E+03   -0.24887E-02   -0.25000E-02  2208   0.394E-01 0.245E-04
CGA:  25    -0.808630211060E+03   -0.31473E-02   -0.31285E-02  2208   0.439E-01 0.452E-03
CGA:  26    -0.808633080758E+03   -0.28697E-02   -0.28648E-02  2208   0.755E-01 0.180E-03
CGA:  27    -0.808635254479E+03   -0.21737E-02   -0.21783E-02  2208   0.308E-01 0.722E-04
CGA:  28    -0.808636278752E+03   -0.10243E-02   -0.10249E-02  2208   0.182E-01 0.291E-04
CGA:  29    -0.808637109027E+03   -0.83028E-03   -0.83019E-03  2208   0.224E-01-0.447E-06
CGA:  30    -0.808638273181E+03   -0.11642E-02   -0.11645E-02  2208   0.178E-01-0.397E-04
CGA:  31    -0.808639240898E+03   -0.96772E-03   -0.96783E-03  2208   0.102E-01-0.169E-04
SDA:  32    -0.808639586842E+03   -0.34594E-03   -0.34626E-03  2208   0.933E-02 0.110E-04
CGA:  33    -0.808639754449E+03   -0.16761E-03   -0.16742E-03  2208   0.369E-02 0.135E-04
CGA:  34    -0.808640035050E+03   -0.28060E-03   -0.27941E-03  2208   0.622E-02 0.324E-04
CGA:  35    -0.808640463951E+03   -0.42890E-03   -0.42743E-03  2208   0.565E-02 0.536E-04
CGA:  36    -0.808640642341E+03   -0.17839E-03   -0.17854E-03  2208   0.261E-02 0.130E-04
CGA:  37    -0.808640767234E+03   -0.12489E-03   -0.12492E-03  2208   0.253E-02-0.540E-05
CGA:  38    -0.808640971460E+03   -0.20423E-03   -0.20517E-03  2208   0.333E-02-0.254E-04
CGA:  39    -0.808641107016E+03   -0.13556E-03   -0.13547E-03  2208   0.337E-02-0.247E-04
CGA:  40    -0.808641206176E+03   -0.99160E-04   -0.98956E-04  2208   0.124E-02-0.139E-04
CGA:  41    -0.808641257112E+03   -0.50936E-04   -0.50931E-04  2208   0.975E-03-0.310E-05
CGA:  42    -0.808641348223E+03   -0.91111E-04   -0.90947E-04  2208   0.129E-02 0.254E-05
CGA:  43    -0.808641434950E+03   -0.86726E-04   -0.86661E-04  2208   0.100E-02 0.263E-05
CGA:  44    -0.808641462057E+03   -0.27107E-04   -0.27120E-04  2208   0.536E-03-0.198E-06
CGA:  45    -0.808641485451E+03   -0.23395E-04   -0.23388E-04  2208   0.517E-03-0.337E-05
CGA:  46    -0.808641517480E+03   -0.32028E-04   -0.32142E-04  2208   0.971E-03-0.715E-05
CGA:  47    -0.808641554801E+03   -0.37321E-04   -0.37260E-04  2208   0.489E-03-0.841E-05
CGA:  48    -0.808641584353E+03   -0.29553E-04   -0.29595E-04  2208   0.201E-03-0.330E-05
CGA:  49    -0.808641601106E+03   -0.16752E-04   -0.16548E-04  2208   0.246E-03 0.531E-05
CGA:  50    -0.808641618764E+03   -0.17659E-04   -0.17467E-04  2208   0.377E-03 0.920E-05
CGA:  51    -0.808641632984E+03   -0.14220E-04   -0.14329E-04  2208   0.239E-03 0.798E-05
CGA:  52    -0.808641639382E+03   -0.63976E-05   -0.64896E-05  2208   0.103E-03 0.357E-05
   7 F= -.80864164E+03 E0= -.80858957E+03  d E =-.897719E-01  mag=    66.0000
       N       E                     dE             d eps       ncg     rms          ort
SDA:   1    -0.802550666702E+03    0.60910E+01    0.00000E+00  2208   0.231E+02 0.000E+00
CGA:   2    -0.804119213130E+03   -0.15685E+01   -0.15701E+01  2208   0.610E+02-0.327E-01
CGA:   3    -0.806270306433E+03   -0.21511E+01   -0.21158E+01  2208   0.221E+02-0.634E-01
CGA:   4    -0.807074413838E+03   -0.80411E+00   -0.80309E+00  2208   0.841E+01-0.350E-02
CGA:   5    -0.807753382818E+03   -0.67897E+00   -0.67931E+00  2208   0.134E+02-0.206E-01
CGA:   6    -0.808182369585E+03   -0.42899E+00   -0.43220E+00  2208   0.699E+01-0.628E-02
CGA:   7    -0.808414530654E+03   -0.23216E+00   -0.23079E+00  2208   0.266E+01 0.682E-02
CGA:   8    -0.808481875045E+03   -0.67344E-01   -0.67297E-01  2208   0.120E+01 0.240E-02
CGA:   9    -0.808534677639E+03   -0.52803E-01   -0.52815E-01  2208   0.117E+01 0.205E-02
CGA:  10    -0.808592849299E+03   -0.58172E-01   -0.58132E-01  2208   0.750E+00 0.835E-02
CGA:  11    -0.808621709663E+03   -0.28860E-01   -0.28907E-01  2208   0.252E+00 0.167E-02
CGA:  12    -0.808629776353E+03   -0.80667E-02   -0.80960E-02  2208   0.150E+00 0.238E-03
CGA:  13    -0.808634776468E+03   -0.50001E-02   -0.50077E-02  2208   0.122E+00 0.175E-03
CGA:  14    -0.808642229085E+03   -0.74526E-02   -0.74397E-02  2208   0.119E+00 0.681E-03
CGA:  15    -0.808646653682E+03   -0.44246E-02   -0.44289E-02  2208   0.679E-01 0.183E-03
CGA:  16    -0.808648924121E+03   -0.22704E-02   -0.22735E-02  2208   0.277E-01 0.620E-04
CGA:  17    -0.808650332764E+03   -0.14086E-02   -0.14079E-02  2208   0.247E-01 0.886E-04
CGA:  18    -0.808651417441E+03   -0.10847E-02   -0.10849E-02  2208   0.361E-01 0.955E-04
CGA:  19    -0.808653186490E+03   -0.17690E-02   -0.17683E-02  2208   0.208E-01 0.127E-03
CGA:  20    -0.808654121884E+03   -0.93539E-03   -0.93545E-03  2208   0.114E-01 0.610E-04
CGA:  21    -0.808654584011E+03   -0.46213E-03   -0.46208E-03  2208   0.105E-01-0.113E-04
CGA:  22    -0.808655168176E+03   -0.58417E-03   -0.58415E-03  2208   0.125E-01-0.407E-05
CGA:  23    -0.808655728066E+03   -0.55989E-03   -0.55991E-03  2208   0.109E-01 0.726E-05
CGA:  24    -0.808656105379E+03   -0.37731E-03   -0.37764E-03  2208   0.600E-02-0.199E-05
CGA:  25    -0.808656331501E+03   -0.22612E-03   -0.22614E-03  2208   0.309E-02 0.261E-05
CGA:  26    -0.808656514075E+03   -0.18257E-03   -0.18220E-03  2208   0.381E-02 0.238E-04
CGA:  27    -0.808656759664E+03   -0.24559E-03   -0.24476E-03  2208   0.409E-02 0.430E-04
CGA:  28    -0.808656868633E+03   -0.10897E-03   -0.10934E-03  2208   0.164E-02 0.132E-04
CGA:  29    -0.808656944032E+03   -0.75399E-04   -0.75398E-04  2208   0.127E-02 0.209E-05
CGA:  30    -0.808657011913E+03   -0.67881E-04   -0.67908E-04  2208   0.155E-02-0.449E-05
CGA:  31    -0.808657083904E+03   -0.71992E-04   -0.72000E-04  2208   0.129E-02-0.112E-04
SDA:  32    -0.808657153225E+03   -0.69321E-04   -0.69407E-04  2208   0.693E-03-0.107E-04
CGA:  33    -0.808657166770E+03   -0.13545E-04   -0.13558E-04  2208   0.343E-03 0.268E-06
CGA:  34    -0.808657196955E+03   -0.30185E-04   -0.29992E-04  2208   0.529E-03 0.386E-05
CGA:  35    -0.808657236958E+03   -0.40003E-04   -0.39961E-04  2208   0.385E-03 0.112E-05
CGA:  36    -0.808657254110E+03   -0.17153E-04   -0.17139E-04  2208   0.210E-03-0.383E-05
CGA:  37    -0.808657264696E+03   -0.10585E-04   -0.10605E-04  2208   0.265E-03-0.714E-05
CGA:  38    -0.808657276885E+03   -0.12189E-04   -0.12181E-04  2208   0.413E-03-0.111E-04
CGA:  39    -0.808657297137E+03   -0.20252E-04   -0.20303E-04  2208   0.192E-03-0.174E-04
CGA:  40    -0.808657306936E+03   -0.97983E-05   -0.98163E-05  2208   0.107E-03-0.417E-05
   8 F= -.80865731E+03 E0= -.80860696E+03  d E =-.156676E-01  mag=    66.0000
       N       E                     dE             d eps       ncg     rms          ort
SDA:   1    -0.808339461090E+03    0.31784E+00    0.00000E+00  2208   0.189E+01 0.000E+00
CGA:   2    -0.808408414985E+03   -0.68954E-01   -0.68960E-01  2208   0.217E+01 0.467E-03
CGA:   3    -0.808545955182E+03   -0.13754E+00   -0.13761E+00  2208   0.855E+00-0.345E-02
CGA:   4    -0.808575221506E+03   -0.29266E-01   -0.29383E-01  2208   0.660E+00 0.710E-03
CGA:   5    -0.808601037795E+03   -0.25816E-01   -0.25867E-01  2208   0.640E+00 0.155E-02
CGA:   6    -0.808639247555E+03   -0.38210E-01   -0.38174E-01  2208   0.360E+00 0.218E-02
CGA:   7    -0.808655759038E+03   -0.16511E-01   -0.16501E-01  2208   0.128E+00-0.146E-02
CGA:   8    -0.808659161837E+03   -0.34028E-02   -0.34039E-02  2208   0.545E-01-0.417E-04
CGA:   9    -0.808662335583E+03   -0.31737E-02   -0.31715E-02  2208   0.617E-01 0.145E-03
CGA:  10    -0.808664680087E+03   -0.23445E-02   -0.23454E-02  2208   0.374E-01 0.882E-05
CGA:  11    -0.808665832629E+03   -0.11525E-02   -0.11520E-02  2208   0.166E-01-0.746E-05
CGA:  12    -0.808666475189E+03   -0.64256E-03   -0.64246E-03  2208   0.573E-02-0.106E-04
CGA:  13    -0.808666772948E+03   -0.29776E-03   -0.29765E-03  2208   0.567E-02 0.116E-04
CGA:  14    -0.808667143175E+03   -0.37023E-03   -0.37037E-03  2208   0.675E-02-0.667E-05
CGA:  15    -0.808667327745E+03   -0.18457E-03   -0.18458E-03  2208   0.262E-02-0.663E-06
CGA:  16    -0.808667430698E+03   -0.10295E-03   -0.10294E-03  2208   0.132E-02-0.193E-05
CGA:  17    -0.808667489449E+03   -0.58751E-04   -0.58746E-04  2208   0.138E-02-0.290E-05
CGA:  18    -0.808667564978E+03   -0.75529E-04   -0.75582E-04  2208   0.139E-02-0.588E-05
CGA:  19    -0.808667643616E+03   -0.78638E-04   -0.78678E-04  2208   0.805E-03-0.416E-05
CGA:  20    -0.808667674860E+03   -0.31243E-04   -0.31245E-04  2208   0.659E-03 0.240E-06
CGA:  21    -0.808667695260E+03   -0.20401E-04   -0.20447E-04  2208   0.380E-03 0.278E-05
CGA:  22    -0.808667732357E+03   -0.37097E-04   -0.36530E-04  2208   0.484E-03 0.113E-04
CGA:  23    -0.808667753764E+03   -0.21407E-04   -0.21442E-04  2208   0.370E-03 0.624E-05
CGA:  24    -0.808667767375E+03   -0.13611E-04   -0.13638E-04  2208   0.180E-03 0.210E-05
CGA:  25    -0.808667776273E+03   -0.88985E-05   -0.89008E-05  2208   0.179E-03-0.128E-05
   9 F= -.80866778E+03 E0= -.80861830E+03  d E =-.104693E-01  mag=    66.0000
       N       E                     dE             d eps       ncg     rms          ort
SDA:   1    -0.807052957643E+03    0.16148E+01    0.00000E+00  2208   0.634E+01 0.000E+00
CGA:   2    -0.807673329328E+03   -0.62037E+00   -0.61730E+00  2208   0.119E+02 0.701E-01
CGA:   3    -0.808105834672E+03   -0.43251E+00   -0.42777E+00  2208   0.588E+01-0.206E-01
CGA:   4    -0.808260698437E+03   -0.15486E+00   -0.15597E+00  2208   0.214E+01-0.114E-01
CGA:   5    -0.808426459395E+03   -0.16576E+00   -0.16491E+00  2208   0.384E+01 0.261E-01
CGA:   6    -0.808561617109E+03   -0.13516E+00   -0.13506E+00  2208   0.146E+01 0.188E-03
CGA:   7    -0.808618545375E+03   -0.56928E-01   -0.56764E-01  2208   0.355E+00-0.386E-02
CGA:   8    -0.808640204570E+03   -0.21659E-01   -0.21662E-01  2208   0.293E+00-0.146E-03
CGA:   9    -0.808658034463E+03   -0.17830E-01   -0.17837E-01  2208   0.291E+00-0.387E-03
CGA:  10    -0.808665899901E+03   -0.78654E-02   -0.78919E-02  2208   0.121E+00-0.317E-03
CGA:  11    -0.808670385239E+03   -0.44853E-02   -0.44884E-02  2208   0.358E-01 0.720E-04
CGA:  12    -0.808671889755E+03   -0.15045E-02   -0.15041E-02  2208   0.399E-01-0.110E-04
CGA:  13    -0.808674189830E+03   -0.23001E-02   -0.22993E-02  2208   0.287E-01 0.590E-04
CGA:  14    -0.808675882927E+03   -0.16931E-02   -0.16917E-02  2208   0.111E-01 0.943E-04
CGA:  15    -0.808676490421E+03   -0.60749E-03   -0.60740E-03  2208   0.749E-02 0.113E-04
CGA:  16    -0.808676900770E+03   -0.41035E-03   -0.41020E-03  2208   0.109E-01 0.163E-04
CGA:  17    -0.808677417228E+03   -0.51646E-03   -0.51649E-03  2208   0.939E-02 0.975E-05
CGA:  18    -0.808677834625E+03   -0.41740E-03   -0.41742E-03  2208   0.625E-02 0.409E-05
CGA:  19    -0.808678055325E+03   -0.22070E-03   -0.22078E-03  2208   0.377E-02 0.123E-05
CGA:  20    -0.808678252265E+03   -0.19694E-03   -0.19691E-03  2208   0.354E-02 0.586E-05
CGA:  21    -0.808678540785E+03   -0.28852E-03   -0.28821E-03  2208   0.418E-02 0.908E-05
CGA:  22    -0.808678745014E+03   -0.20423E-03   -0.20424E-03  2208   0.181E-02 0.938E-05
CGA:  23    -0.808678840092E+03   -0.95078E-04   -0.95066E-04  2208   0.145E-02 0.407E-05
CGA:  24    -0.808678898970E+03   -0.58878E-04   -0.58898E-04  2208   0.156E-02 0.180E-05
CGA:  25    -0.808678985510E+03   -0.86540E-04   -0.86526E-04  2208   0.130E-02 0.143E-05
CGA:  26    -0.808679042820E+03   -0.57310E-04   -0.57323E-04  2208   0.799E-03 0.154E-05
CGA:  27    -0.808679068959E+03   -0.26139E-04   -0.26146E-04  2208   0.389E-03 0.107E-06
CGA:  28    -0.808679099859E+03   -0.30900E-04   -0.30885E-04  2208   0.425E-03 0.381E-06
CGA:  29    -0.808679134863E+03   -0.35003E-04   -0.34986E-04  2208   0.427E-03 0.402E-06
CGA:  30    -0.808679149748E+03   -0.14886E-04   -0.14897E-04  2208   0.301E-03 0.289E-06
CGA:  31    -0.808679160434E+03   -0.10685E-04   -0.10680E-04  2208   0.145E-03-0.379E-06
SDA:  32    -0.808679171344E+03   -0.10910E-04   -0.10922E-04  2208   0.230E-03-0.549E-06
CGA:  33    -0.808679176195E+03   -0.48504E-05   -0.48505E-05  2208   0.734E-04-0.890E-07
  10 F= -.80867918E+03 E0= -.80863230E+03  d E =-.113999E-01  mag=    66.0000
       N       E                     dE             d eps       ncg     rms          ort
SDA:   1    -0.795239648673E+03    0.13440E+02    0.00000E+00  2208   0.580E+02 0.000E+00
CGA:   2    -0.799565538837E+03   -0.43259E+01   -0.41133E+01  2208   0.820E+02 0.748E+01
CGA:   3    -0.803731191778E+03   -0.41657E+01   -0.39334E+01  2208   0.504E+02-0.463E+01
CGA:   4    -0.805394761282E+03   -0.16636E+01   -0.16716E+01  2208   0.178E+02 0.357E+00
CGA:   5    -0.806524611016E+03   -0.11298E+01   -0.11149E+01  2208   0.220E+02 0.894E+00
CGA:   6    -0.807538081274E+03   -0.10135E+01   -0.98285E+00  2208   0.193E+02-0.101E+01
CGA:   7    -0.808061343872E+03   -0.52326E+00   -0.52368E+00  2208   0.701E+01 0.259E-01
CGA:   8    -0.808271632737E+03   -0.21029E+00   -0.20823E+00  2208   0.300E+01 0.202E-01
CGA:   9    -0.808400270097E+03   -0.12864E+00   -0.12883E+00  2208   0.314E+01 0.146E-01
CGA:  10    -0.808516717604E+03   -0.11645E+00   -0.11778E+00  2208   0.222E+01 0.273E-01
CGA:  11    -0.808585133456E+03   -0.68416E-01   -0.68515E-01  2208   0.927E+00 0.706E-03
CGA:  12    -0.808619658701E+03   -0.34525E-01   -0.34714E-01  2208   0.399E+00 0.540E-02
CGA:  13    -0.808635444698E+03   -0.15786E-01   -0.15867E-01  2208   0.400E+00 0.404E-02
CGA:  14    -0.808651213179E+03   -0.15768E-01   -0.15773E-01  2208   0.302E+00 0.260E-03
CGA:  15    -0.808666879105E+03   -0.15666E-01   -0.15633E-01  2208   0.143E+00 0.338E-02
CGA:  16    -0.808672644940E+03   -0.57658E-02   -0.57781E-02  2208   0.110E+00 0.755E-03
CGA:  17    -0.808676625351E+03   -0.39804E-02   -0.39811E-02  2208   0.849E-01-0.566E-04
CGA:  18    -0.808682345278E+03   -0.57199E-02   -0.56686E-02  2208   0.844E-01 0.194E-02
CGA:  19    -0.808686351758E+03   -0.40065E-02   -0.40064E-02  2208   0.544E-01 0.578E-03
CGA:  20    -0.808688471965E+03   -0.21202E-02   -0.21215E-02  2208   0.448E-01 0.575E-04
CGA:  21    -0.808690773057E+03   -0.23011E-02   -0.22950E-02  2208   0.381E-01 0.719E-03
CGA:  22    -0.808693004312E+03   -0.22313E-02   -0.22282E-02  2208   0.406E-01 0.204E-03
CGA:  23    -0.808694907803E+03   -0.19035E-02   -0.19035E-02  2208   0.241E-01 0.110E-03
CGA:  24    -0.808696032213E+03   -0.11244E-02   -0.11245E-02  2208   0.164E-01 0.242E-03
CGA:  25    -0.808696792489E+03   -0.76028E-03   -0.76029E-03  2208   0.180E-01 0.206E-04
CGA:  26    -0.808697824518E+03   -0.10320E-02   -0.10316E-02  2208   0.120E-01 0.303E-04
CGA:  27    -0.808698461110E+03   -0.63659E-03   -0.63616E-03  2208   0.640E-02 0.480E-04
CGA:  28    -0.808698769069E+03   -0.30796E-03   -0.30796E-03  2208   0.613E-02-0.227E-05
CGA:  29    -0.808699067551E+03   -0.29848E-03   -0.29847E-03  2208   0.625E-02 0.491E-05
CGA:  30    -0.808699442749E+03   -0.37520E-03   -0.37523E-03  2208   0.358E-02-0.241E-05
CGA:  31    -0.808699617905E+03   -0.17516E-03   -0.17516E-03  2208   0.216E-02-0.275E-05
SDA:  32    -0.808699738516E+03   -0.12061E-03   -0.12059E-03  2208   0.292E-02 0.197E-05
CGA:  33    -0.808699798090E+03   -0.59574E-04   -0.59488E-04  2208   0.787E-03 0.188E-05
CGA:  34    -0.808699912771E+03   -0.11468E-03   -0.11439E-03  2208   0.227E-02 0.251E-05
CGA:  35    -0.808700022223E+03   -0.10945E-03   -0.10945E-03  2208   0.130E-02 0.155E-06
CGA:  36    -0.808700083795E+03   -0.61572E-04   -0.61570E-04  2208   0.630E-03-0.199E-06
CGA:  37    -0.808700114323E+03   -0.30528E-04   -0.30528E-04  2208   0.445E-03-0.534E-06
CGA:  38    -0.808700157561E+03   -0.43238E-04   -0.43355E-04  2208   0.808E-03-0.298E-05
CGA:  39    -0.808700223507E+03   -0.65946E-04   -0.66052E-04  2208   0.437E-03-0.406E-05
CGA:  40    -0.808700245623E+03   -0.22117E-04   -0.22110E-04  2208   0.224E-03-0.160E-05
CGA:  41    -0.808700255750E+03   -0.10127E-04   -0.10127E-04  2208   0.273E-03-0.287E-06
CGA:  42    -0.808700274912E+03   -0.19162E-04   -0.19170E-04  2208   0.255E-03-0.700E-06
CGA:  43    -0.808700294035E+03   -0.19123E-04   -0.19126E-04  2208   0.150E-03-0.305E-06
CGA:  44    -0.808700301830E+03   -0.77953E-05   -0.77982E-05  2208   0.737E-04 0.384E-06
  11 F= -.80870030E+03 E0= -.80866012E+03  d E =-.211256E-01  mag=    66.0000
       N       E                     dE             d eps       ncg     rms          ort
SDA:   1    -0.779860946287E+03    0.28839E+02    0.00000E+00  2208   0.151E+03 0.000E+00
CGA:   2    -0.787624557546E+03   -0.77636E+01   -0.79410E+01  2208   0.151E+03 0.176E+02
CGA:   3    -0.797283505752E+03   -0.96589E+01   -0.98003E+01  2208   0.227E+03-0.657E+02
CGA:   4    -0.799795986555E+03   -0.25125E+01   -0.27394E+01  2208   0.261E+03-0.923E+01
CGA:   5    -0.802127514161E+03   -0.23315E+01   -0.28167E+01  2208   0.517E+02-0.359E+02
CGA:   6    -0.803194785011E+03   -0.10673E+01   -0.12672E+01  2208   0.612E+02-0.268E+01
CGA:   7    -0.804598495201E+03   -0.14037E+01   -0.12256E+01  2208   0.442E+02 0.538E+01
CGA:   8    -0.806166779782E+03   -0.15683E+01   -0.15260E+01  2208   0.556E+02 0.202E-01
CGA:   9    -0.807013209574E+03   -0.84643E+00   -0.88973E+00  2208   0.309E+02-0.182E+01
CGA:  10    -0.807596707907E+03   -0.58350E+00   -0.60720E+00  2208   0.158E+02-0.798E+00
CGA:  11    -0.807810599944E+03   -0.21389E+00   -0.20630E+00  2208   0.643E+01 0.507E+00
CGA:  12    -0.807972058309E+03   -0.16146E+00   -0.15961E+00  2208   0.752E+01 0.344E-01
CGA:  13    -0.808117891847E+03   -0.14583E+00   -0.15577E+00  2208   0.601E+01-0.247E+00
CGA:  14    -0.808328500648E+03   -0.21061E+00   -0.21327E+00  2208   0.701E+01 0.161E+00
CGA:  15    -0.808441507914E+03   -0.11301E+00   -0.11016E+00  2208   0.191E+01 0.143E+00
CGA:  16    -0.808502898065E+03   -0.61390E-01   -0.61503E-01  2208   0.203E+01 0.252E-02
CGA:  17    -0.808541288702E+03   -0.38391E-01   -0.42198E-01  2208   0.100E+01-0.828E-01
CGA:  18    -0.808578535408E+03   -0.37247E-01   -0.37284E-01  2208   0.783E+00 0.302E-01
CGA:  19    -0.808604298569E+03   -0.25763E-01   -0.25617E-01  2208   0.876E+00-0.519E-02
CGA:  20    -0.808636495723E+03   -0.32197E-01   -0.32248E-01  2208   0.622E+00 0.124E-01
CGA:  21    -0.808656293472E+03   -0.19798E-01   -0.20439E-01  2208   0.287E+00 0.316E-01
CGA:  22    -0.808664544939E+03   -0.82515E-02   -0.82490E-02  2208   0.193E+00 0.128E-03
CGA:  23    -0.808677318366E+03   -0.12773E-01   -0.12715E-01  2208   0.239E+00 0.174E-02
CGA:  24    -0.808688014351E+03   -0.10696E-01   -0.10577E-01  2208   0.181E+00 0.159E-01
CGA:  25    -0.808695024576E+03   -0.70102E-02   -0.70086E-02  2208   0.996E-01-0.159E-03
CGA:  26    -0.808699726035E+03   -0.47015E-02   -0.47010E-02  2208   0.800E-01 0.370E-04
CGA:  27    -0.808704840045E+03   -0.51140E-02   -0.50923E-02  2208   0.682E-01 0.785E-03
CGA:  28    -0.808708515959E+03   -0.36759E-02   -0.36723E-02  2208   0.730E-01 0.208E-03
CGA:  29    -0.808711611906E+03   -0.30959E-02   -0.30953E-02  2208   0.415E-01 0.515E-03
CGA:  30    -0.808713957894E+03   -0.23460E-02   -0.23421E-02  2208   0.272E-01 0.208E-03
CGA:  31    -0.808715643458E+03   -0.16856E-02   -0.16850E-02  2208   0.339E-01 0.326E-04
SDA:  32    -0.808717398257E+03   -0.17548E-02   -0.17526E-02  2208   0.306E-01 0.178E-03
CGA:  33    -0.808718201849E+03   -0.80359E-03   -0.80374E-03  2208   0.996E-02 0.370E-05
CGA:  34    -0.808718876661E+03   -0.67481E-03   -0.67394E-03  2208   0.115E-01 0.331E-04
CGA:  35    -0.808719761359E+03   -0.88470E-03   -0.88432E-03  2208   0.160E-01 0.145E-04
CGA:  36    -0.808720822597E+03   -0.10612E-02   -0.10612E-02  2208   0.644E-02 0.332E-05
CGA:  37    -0.808721173178E+03   -0.35058E-03   -0.35066E-03  2208   0.449E-02-0.662E-05
CGA:  38    -0.808721646020E+03   -0.47284E-03   -0.47204E-03  2208   0.526E-02 0.141E-04
CGA:  39    -0.808722092884E+03   -0.44686E-03   -0.44739E-03  2208   0.562E-02-0.151E-04
CGA:  40    -0.808722439634E+03   -0.34675E-03   -0.34669E-03  2208   0.334E-02 0.322E-05
CGA:  41    -0.808722658111E+03   -0.21848E-03   -0.21843E-03  2208   0.295E-02 0.391E-05
CGA:  42    -0.808722814348E+03   -0.15624E-03   -0.15624E-03  2208   0.338E-02 0.603E-05
CGA:  43    -0.808723023847E+03   -0.20950E-03   -0.20944E-03  2208   0.178E-02 0.598E-05
CGA:  44    -0.808723147806E+03   -0.12396E-03   -0.12390E-03  2208   0.719E-03 0.287E-05
CGA:  45    -0.808723212818E+03   -0.65013E-04   -0.65071E-04  2208   0.641E-03-0.185E-05
CGA:  46    -0.808723275461E+03   -0.62642E-04   -0.62759E-04  2208   0.101E-02-0.294E-05
CGA:  47    -0.808723321010E+03   -0.45549E-04   -0.45539E-04  2208   0.357E-03-0.138E-05
CGA:  48    -0.808723340325E+03   -0.19316E-04   -0.19323E-04  2208   0.331E-03 0.202E-05
CGA:  49    -0.808723360079E+03   -0.19754E-04   -0.19746E-04  2208   0.381E-03 0.411E-05
CGA:  50    -0.808723385688E+03   -0.25609E-04   -0.25537E-04  2208   0.244E-03 0.787E-05
CGA:  51    -0.808723404293E+03   -0.18604E-04   -0.18493E-04  2208   0.105E-03 0.659E-05
CGA:  52    -0.808723417457E+03   -0.13165E-04   -0.12860E-04  2208   0.188E-03 0.498E-05
CGA:  53    -0.808723435521E+03   -0.18064E-04   -0.17892E-04  2208   0.154E-03 0.576E-05
CGA:  54    -0.808723445688E+03   -0.10167E-04   -0.10164E-04  2208   0.100E-03 0.287E-05
CGA:  55    -0.808723452313E+03   -0.66254E-05   -0.66238E-05  2208   0.982E-04 0.982E-06
  12 F= -.80872345E+03 E0= -.80868879E+03  d E =-.231505E-01  mag=    66.0000
       N       E                     dE             d eps       ncg     rms          ort
SDA:   1    -0.801078547788E+03    0.76449E+01    0.00000E+00  2208   0.343E+02 0.000E+00
CGA:   2    -0.803985785767E+03   -0.29072E+01   -0.28780E+01  2208   0.602E+02 0.105E+01
CGA:   3    -0.806539927781E+03   -0.25541E+01   -0.24358E+01  2208   0.141E+02 0.126E+01
CGA:   4    -0.807194887625E+03   -0.65496E+00   -0.66063E+00  2208   0.864E+01 0.347E-01
CGA:   5    -0.807937348589E+03   -0.74246E+00   -0.74287E+00  2208   0.938E+01-0.688E-02
CGA:   6    -0.808365269436E+03   -0.42792E+00   -0.41869E+00  2208   0.288E+01-0.135E-01
CGA:   7    -0.808496002584E+03   -0.13073E+00   -0.12958E+00  2208   0.178E+01-0.612E-02
CGA:   8    -0.808591406070E+03   -0.95403E-01   -0.96001E-01  2208   0.151E+01 0.288E-01
CGA:   9    -0.808672560401E+03   -0.81154E-01   -0.81042E-01  2208   0.580E+00-0.395E-02
CGA:  10    -0.808700556826E+03   -0.27996E-01   -0.27970E-01  2208   0.235E+00-0.296E-03
CGA:  11    -0.808711940503E+03   -0.11384E-01   -0.11389E-01  2208   0.184E+00 0.150E-03
CGA:  12    -0.808722626572E+03   -0.10686E-01   -0.10689E-01  2208   0.148E+00 0.869E-03
CGA:  13    -0.808730723176E+03   -0.80966E-02   -0.80981E-02  2208   0.920E-01 0.157E-03
CGA:  14    -0.808735589451E+03   -0.48663E-02   -0.48697E-02  2208   0.401E-01 0.213E-03
CGA:  15    -0.808738226068E+03   -0.26366E-02   -0.26368E-02  2208   0.497E-01-0.106E-04
CGA:  16    -0.808741213557E+03   -0.29875E-02   -0.29872E-02  2208   0.476E-01 0.227E-03
CGA:  17    -0.808743968267E+03   -0.27547E-02   -0.27548E-02  2208   0.241E-01 0.433E-04
CGA:  18    -0.808745493020E+03   -0.15248E-02   -0.15242E-02  2208   0.216E-01 0.922E-04
CGA:  19    -0.808746878673E+03   -0.13857E-02   -0.13857E-02  2208   0.226E-01 0.850E-05
CGA:  20    -0.808748360794E+03   -0.14821E-02   -0.14812E-02  2208   0.200E-01 0.100E-03
CGA:  21    -0.808749302725E+03   -0.94193E-03   -0.94243E-03  2208   0.101E-01 0.900E-05
CGA:  22    -0.808749893525E+03   -0.59080E-03   -0.59081E-03  2208   0.677E-02 0.729E-05
CGA:  23    -0.808750426960E+03   -0.53343E-03   -0.53337E-03  2208   0.762E-02 0.379E-05
CGA:  24    -0.808750797801E+03   -0.37084E-03   -0.37103E-03  2208   0.530E-02 0.810E-05
CGA:  25    -0.808751073650E+03   -0.27585E-03   -0.27583E-03  2208   0.233E-02 0.151E-05
CGA:  26    -0.808751251454E+03   -0.17780E-03   -0.17778E-03  2208   0.260E-02 0.277E-05
CGA:  27    -0.808751407201E+03   -0.15575E-03   -0.15575E-03  2208   0.237E-02-0.513E-06
CGA:  28    -0.808751551467E+03   -0.14427E-03   -0.14426E-03  2208   0.189E-02 0.140E-05
CGA:  29    -0.808751641610E+03   -0.90144E-04   -0.90153E-04  2208   0.853E-03 0.307E-06
CGA:  30    -0.808751695010E+03   -0.53399E-04   -0.53398E-04  2208   0.822E-03 0.110E-06
CGA:  31    -0.808751774017E+03   -0.79007E-04   -0.79019E-04  2208   0.109E-02-0.363E-06
SDA:  32    -0.808751812657E+03   -0.38640E-04   -0.38679E-04  2208   0.324E-03 0.440E-06
CGA:  33    -0.808751823231E+03   -0.10574E-04   -0.10566E-04  2208   0.209E-03-0.408E-06
CGA:  34    -0.808751840436E+03   -0.17205E-04   -0.17204E-04  2208   0.288E-03-0.214E-06
CGA:  35    -0.808751864721E+03   -0.24285E-04   -0.24291E-04  2208   0.244E-03-0.530E-06
CGA:  36    -0.808751876059E+03   -0.11338E-04   -0.11333E-04  2208   0.978E-04-0.545E-06
CGA:  37    -0.808751882396E+03   -0.63370E-05   -0.63376E-05  2208   0.820E-04-0.378E-06
  13 F= -.80875188E+03 E0= -.80871799E+03  d E =-.284301E-01  mag=    66.0000
       N       E                     dE             d eps       ncg     rms          ort
SDA:   1    -0.807463523204E+03    0.12884E+01    0.00000E+00  2208   0.441E+01 0.000E+00
CGA:   2    -0.808148230114E+03   -0.68471E+00   -0.68311E+00  2208   0.719E+01 0.191E-01
CGA:   3    -0.808346602054E+03   -0.19837E+00   -0.20175E+00  2208   0.215E+01-0.724E-01
CGA:   4    -0.808514777810E+03   -0.16818E+00   -0.16940E+00  2208   0.234E+01-0.599E-01
CGA:   5    -0.808677721979E+03   -0.16294E+00   -0.16275E+00  2208   0.765E+00 0.234E-01
CGA:   6    -0.808711734764E+03   -0.34013E-01   -0.34014E-01  2208   0.372E+00 0.286E-03
CGA:   7    -0.808726996326E+03   -0.15262E-01   -0.15296E-01  2208   0.249E+00-0.417E-04
CGA:   8    -0.808745272484E+03   -0.18276E-01   -0.18286E-01  2208   0.126E+00-0.710E-03
CGA:   9    -0.808751241873E+03   -0.59694E-02   -0.59745E-02  2208   0.651E-01 0.689E-04
CGA:  10    -0.808754141177E+03   -0.28993E-02   -0.28984E-02  2208   0.243E-01 0.941E-05
CGA:  11    -0.808755695869E+03   -0.15547E-02   -0.15546E-02  2208   0.290E-01 0.436E-04
CGA:  12    -0.808757183235E+03   -0.14874E-02   -0.14865E-02  2208   0.166E-01-0.141E-04
CGA:  13    -0.808758068925E+03   -0.88569E-03   -0.88593E-03  2208   0.687E-02 0.105E-04
CGA:  14    -0.808758424088E+03   -0.35516E-03   -0.35516E-03  2208   0.461E-02 0.472E-06
CGA:  15    -0.808758785979E+03   -0.36189E-03   -0.36184E-03  2208   0.609E-02 0.347E-05
CGA:  16    -0.808759106690E+03   -0.32071E-03   -0.32068E-03  2208   0.425E-02 0.171E-05
CGA:  17    -0.808759315061E+03   -0.20837E-03   -0.20846E-03  2208   0.213E-02 0.492E-05
CGA:  18    -0.808759452600E+03   -0.13754E-03   -0.13754E-03  2208   0.195E-02 0.169E-05
CGA:  19    -0.808759628488E+03   -0.17589E-03   -0.17576E-03  2208   0.197E-02 0.456E-05
CGA:  20    -0.808759728682E+03   -0.10019E-03   -0.10020E-03  2208   0.187E-02 0.106E-05
CGA:  21    -0.808759820057E+03   -0.91375E-04   -0.91398E-04  2208   0.557E-03 0.139E-05
CGA:  22    -0.808759875231E+03   -0.55174E-04   -0.55154E-04  2208   0.683E-03 0.440E-06
CGA:  23    -0.808759916798E+03   -0.41567E-04   -0.41568E-04  2208   0.797E-03 0.247E-06
CGA:  24    -0.808759955451E+03   -0.38653E-04   -0.38642E-04  2208   0.254E-03-0.498E-06
CGA:  25    -0.808759970475E+03   -0.15025E-04   -0.15025E-04  2208   0.269E-03 0.116E-06
CGA:  26    -0.808759989024E+03   -0.18549E-04   -0.18551E-04  2208   0.249E-03-0.281E-06
CGA:  27    -0.808760008531E+03   -0.19507E-04   -0.19516E-04  2208   0.175E-03-0.619E-06
CGA:  28    -0.808760015419E+03   -0.68878E-05   -0.68764E-05  2208   0.108E-03-0.486E-06
  14 F= -.80876002E+03 E0= -.80872534E+03  d E =-.813302E-02  mag=    66.0000
       N       E                     dE             d eps       ncg     rms          ort
SDA:   1    -0.806698184283E+03    0.20618E+01    0.00000E+00  2208   0.859E+01 0.000E+00
CGA:   2    -0.807749778132E+03   -0.10516E+01   -0.10431E+01  2208   0.155E+02 0.133E+00
CGA:   3    -0.808244514864E+03   -0.49474E+00   -0.47236E+00  2208   0.281E+01 0.477E+00
CGA:   4    -0.808403723013E+03   -0.15921E+00   -0.15994E+00  2208   0.216E+01 0.311E-01
CGA:   5    -0.808609943395E+03   -0.20622E+00   -0.20571E+00  2208   0.185E+01 0.127E-01
CGA:   6    -0.808687207860E+03   -0.77264E-01   -0.76680E-01  2208   0.476E+00 0.274E-02
CGA:   7    -0.808720536898E+03   -0.33329E-01   -0.33355E-01  2208   0.425E+00-0.236E-02
CGA:   8    -0.808749142472E+03   -0.28606E-01   -0.28592E-01  2208   0.233E+00 0.204E-02
CGA:   9    -0.808759828087E+03   -0.10686E-01   -0.10696E-01  2208   0.773E-01 0.738E-04
CGA:  10    -0.808764416819E+03   -0.45887E-02   -0.45894E-02  2208   0.377E-01 0.844E-04
CGA:  11    -0.808768034017E+03   -0.36172E-02   -0.36205E-02  2208   0.388E-01-0.833E-04
CGA:  12    -0.808770627416E+03   -0.25934E-02   -0.25930E-02  2208   0.271E-01 0.901E-04
CGA:  13    -0.808771625115E+03   -0.99770E-03   -0.99824E-03  2208   0.122E-01-0.218E-05
CGA:  14    -0.808772379966E+03   -0.75485E-03   -0.75486E-03  2208   0.135E-01 0.392E-05
CGA:  15    -0.808773518289E+03   -0.11383E-02   -0.11385E-02  2208   0.145E-01-0.341E-05
CGA:  16    -0.808774289705E+03   -0.77142E-03   -0.77191E-03  2208   0.759E-02 0.141E-04
CGA:  17    -0.808774787307E+03   -0.49760E-03   -0.49759E-03  2208   0.521E-02 0.384E-05
CGA:  18    -0.808775333911E+03   -0.54660E-03   -0.54632E-03  2208   0.642E-02 0.638E-05
CGA:  19    -0.808775758592E+03   -0.42468E-03   -0.42468E-03  2208   0.459E-02 0.293E-06
CGA:  20    -0.808776037396E+03   -0.27880E-03   -0.27885E-03  2208   0.202E-02 0.657E-05
CGA:  21    -0.808776163146E+03   -0.12575E-03   -0.12576E-03  2208   0.214E-02 0.285E-05
CGA:  22    -0.808776268320E+03   -0.10517E-03   -0.10522E-03  2208   0.183E-02 0.275E-05
CGA:  23    -0.808776415273E+03   -0.14695E-03   -0.14692E-03  2208   0.887E-03 0.270E-05
CGA:  24    -0.808776467209E+03   -0.51936E-04   -0.51946E-04  2208   0.626E-03 0.114E-05
CGA:  25    -0.808776507220E+03   -0.40011E-04   -0.40012E-04  2208   0.563E-03 0.106E-06
CGA:  26    -0.808776558561E+03   -0.51340E-04   -0.51369E-04  2208   0.578E-03-0.104E-05
CGA:  27    -0.808776592208E+03   -0.33647E-04   -0.33640E-04  2208   0.332E-03-0.801E-06
CGA:  28    -0.808776604848E+03   -0.12640E-04   -0.12644E-04  2208   0.190E-03 0.628E-08
CGA:  29    -0.808776620481E+03   -0.15633E-04   -0.15632E-04  2208   0.244E-03-0.163E-07
CGA:  30    -0.808776636446E+03   -0.15965E-04   -0.15965E-04  2208   0.164E-03 0.324E-06
CGA:  31    -0.808776645817E+03   -0.93711E-05   -0.93752E-05  2208   0.500E-04 0.464E-06
  15 F= -.80877665E+03 E0= -.80874273E+03  d E =-.166304E-01  mag=    66.0000
       N       E                     dE             d eps       ncg     rms          ort
SDA:   1    -0.782456725418E+03    0.26320E+02    0.00000E+00  2208   0.117E+03 0.000E+00
CGA:   2    -0.796172292724E+03   -0.13716E+02   -0.13162E+02  2208   0.174E+03 0.926E+01
CGA:   3    -0.802176681219E+03   -0.60044E+01   -0.44669E+01  2208   0.300E+02 0.665E+02
CGA:   4    -0.803469033354E+03   -0.12924E+01   -0.10219E+01  2208   0.216E+02 0.821E+01
CGA:   5    -0.804823884279E+03   -0.13549E+01   -0.13504E+01  2208   0.466E+02-0.925E-01
CGA:   6    -0.806111413884E+03   -0.12875E+01   -0.12304E+01  2208   0.483E+02 0.223E+01
CGA:   7    -0.807113269993E+03   -0.10019E+01   -0.99476E+00  2208   0.203E+02 0.470E+00
CGA:   8    -0.807447337063E+03   -0.33407E+00   -0.30535E+00  2208   0.931E+01 0.169E+01
CGA:   9    -0.807679504255E+03   -0.23217E+00   -0.22322E+00  2208   0.885E+01 0.321E+00
CGA:  10    -0.807882275158E+03   -0.20277E+00   -0.20437E+00  2208   0.714E+01-0.173E-01
CGA:  11    -0.808055171019E+03   -0.17290E+00   -0.17519E+00  2208   0.835E+01-0.305E-01
CGA:  12    -0.808275984286E+03   -0.22081E+00   -0.22152E+00  2208   0.743E+01 0.265E-02
CGA:  13    -0.808410501751E+03   -0.13452E+00   -0.13216E+00  2208   0.382E+01 0.123E+00
CGA:  14    -0.808488140959E+03   -0.77639E-01   -0.78771E-01  2208   0.227E+01-0.320E-01
CGA:  15    -0.808526859448E+03   -0.38718E-01   -0.39232E-01  2208   0.105E+01-0.211E-01
CGA:  16    -0.808553997752E+03   -0.27138E-01   -0.27552E-01  2208   0.134E+01-0.502E-02
CGA:  17    -0.808597052668E+03   -0.43055E-01   -0.42962E-01  2208   0.148E+01-0.317E-03
CGA:  18    -0.808633353953E+03   -0.36301E-01   -0.36533E-01  2208   0.141E+01-0.292E-02
CGA:  19    -0.808679110010E+03   -0.45756E-01   -0.45837E-01  2208   0.148E+01 0.788E-03
CGA:  20    -0.808705829408E+03   -0.26719E-01   -0.26869E-01  2208   0.446E+00-0.536E-02
CGA:  21    -0.808715319777E+03   -0.94904E-02   -0.96183E-02  2208   0.352E+00-0.284E-02
CGA:  22    -0.808727037636E+03   -0.11718E-01   -0.11752E-01  2208   0.365E+00 0.125E-02
CGA:  23    -0.808736698847E+03   -0.96612E-02   -0.96962E-02  2208   0.330E+00-0.130E-04
CGA:  24    -0.808749285183E+03   -0.12586E-01   -0.12588E-01  2208   0.440E+00 0.411E-03
CGA:  25    -0.808761188445E+03   -0.11903E-01   -0.11919E-01  2208   0.305E+00 0.114E-03
CGA:  26    -0.808769046333E+03   -0.78579E-02   -0.78702E-02  2208   0.191E+00-0.196E-04
CGA:  27    -0.808773425652E+03   -0.43793E-02   -0.43975E-02  2208   0.100E+00-0.215E-03
CGA:  28    -0.808776391515E+03   -0.29659E-02   -0.29738E-02  2208   0.984E-01 0.210E-03
CGA:  29    -0.808780040906E+03   -0.36494E-02   -0.36497E-02  2208   0.119E+00 0.235E-03
CGA:  30    -0.808784348381E+03   -0.43075E-02   -0.43077E-02  2208   0.120E+00 0.489E-04
CGA:  31    -0.808787625751E+03   -0.32774E-02   -0.32737E-02  2208   0.741E-01-0.886E-04
SDA:  32    -0.808789855626E+03   -0.22299E-02   -0.22299E-02  2208   0.591E-01-0.319E-04
CGA:  33    -0.808791583288E+03   -0.17277E-02   -0.17295E-02  2208   0.262E-01 0.757E-04
CGA:  34    -0.808793551785E+03   -0.19685E-02   -0.19657E-02  2208   0.267E-01 0.745E-04
CGA:  35    -0.808795486879E+03   -0.19351E-02   -0.19357E-02  2208   0.290E-01-0.153E-04
CGA:  36    -0.808797072071E+03   -0.15852E-02   -0.15853E-02  2208   0.141E-01-0.487E-05
CGA:  37    -0.808798114928E+03   -0.10429E-02   -0.10410E-02  2208   0.699E-02 0.523E-04
CGA:  38    -0.808798823809E+03   -0.70888E-03   -0.70895E-03  2208   0.100E-01-0.112E-05
CGA:  39    -0.808799448862E+03   -0.62505E-03   -0.62528E-03  2208   0.816E-02-0.126E-04
CGA:  40    -0.808799984140E+03   -0.53528E-03   -0.53561E-03  2208   0.774E-02-0.150E-04
CGA:  41    -0.808800321129E+03   -0.33699E-03   -0.33698E-03  2208   0.506E-02-0.216E-05
CGA:  42    -0.808800890671E+03   -0.56954E-03   -0.56865E-03  2208   0.595E-02 0.127E-04
CGA:  43    -0.808801372573E+03   -0.48190E-03   -0.48159E-03  2208   0.345E-02 0.909E-05
CGA:  44    -0.808801611213E+03   -0.23864E-03   -0.23858E-03  2208   0.207E-02 0.386E-05
CGA:  45    -0.808801784280E+03   -0.17307E-03   -0.17298E-03  2208   0.349E-02 0.260E-05
CGA:  46    -0.808801983282E+03   -0.19900E-03   -0.19898E-03  2208   0.274E-02 0.634E-05
CGA:  47    -0.808802130830E+03   -0.14755E-03   -0.14755E-03  2208   0.139E-02-0.637E-07
CGA:  48    -0.808802191641E+03   -0.60812E-04   -0.60818E-04  2208   0.520E-03 0.774E-07
CGA:  49    -0.808802227126E+03   -0.35485E-04   -0.35496E-04  2208   0.574E-03-0.110E-05
CGA:  50    -0.808802294730E+03   -0.67603E-04   -0.67617E-04  2208   0.292E-03-0.565E-06
CGA:  51    -0.808802311374E+03   -0.16644E-04   -0.16645E-04  2208   0.207E-03 0.181E-05
CGA:  52    -0.808802326901E+03   -0.15528E-04   -0.15445E-04  2208   0.200E-03 0.470E-05
CGA:  53    -0.808802345524E+03   -0.18622E-04   -0.18378E-04  2208   0.237E-03 0.765E-05
CGA:  54    -0.808802355431E+03   -0.99072E-05   -0.99914E-05  2208   0.137E-03 0.414E-05
  16 F= -.80880236E+03 E0= -.80876943E+03  d E =-.257096E-01  mag=    66.0000
       N       E                     dE             d eps       ncg     rms          ort
SDA:   1    -0.805810733599E+03    0.29916E+01    0.00000E+00  2208   0.105E+02 0.000E+00
CGA:   2    -0.807308087504E+03   -0.14974E+01   -0.14875E+01  2208   0.146E+02 0.137E+00
CGA:   3    -0.807882923233E+03   -0.57484E+00   -0.57343E+00  2208   0.466E+01-0.243E-01
CGA:   4    -0.808214636182E+03   -0.33171E+00   -0.33710E+00  2208   0.731E+01-0.341E+00
CGA:   5    -0.808545225352E+03   -0.33059E+00   -0.33127E+00  2208   0.385E+01 0.162E-01
CGA:   6    -0.808682528811E+03   -0.13730E+00   -0.14267E+00  2208   0.100E+01-0.267E-01
CGA:   7    -0.808724431056E+03   -0.41902E-01   -0.42323E-01  2208   0.559E+00 0.216E-02
CGA:   8    -0.808759029865E+03   -0.34599E-01   -0.34587E-01  2208   0.584E+00 0.336E-02
CGA:   9    -0.808784274170E+03   -0.25244E-01   -0.25121E-01  2208   0.232E+00-0.562E-03
CGA:  10    -0.808793262039E+03   -0.89879E-02   -0.90007E-02  2208   0.876E-01 0.105E-04
CGA:  11    -0.808797932227E+03   -0.46702E-02   -0.46704E-02  2208   0.509E-01 0.271E-04
CGA:  12    -0.808801515215E+03   -0.35830E-02   -0.35836E-02  2208   0.600E-01-0.169E-04
CGA:  13    -0.808804108838E+03   -0.25936E-02   -0.25966E-02  2208   0.371E-01 0.455E-04
CGA:  14    -0.808805774219E+03   -0.16654E-02   -0.16646E-02  2208   0.868E-02-0.572E-05
CGA:  15    -0.808806519939E+03   -0.74572E-03   -0.74585E-03  2208   0.132E-01-0.209E-05
CGA:  16    -0.808807295827E+03   -0.77589E-03   -0.77587E-03  2208   0.138E-01 0.305E-04
CGA:  17    -0.808807908144E+03   -0.61232E-03   -0.61233E-03  2208   0.536E-02 0.726E-05
CGA:  18    -0.808808191860E+03   -0.28372E-03   -0.28374E-03  2208   0.413E-02 0.423E-05
CGA:  19    -0.808808468162E+03   -0.27630E-03   -0.27627E-03  2208   0.411E-02 0.361E-05
CGA:  20    -0.808808807812E+03   -0.33965E-03   -0.33956E-03  2208   0.424E-02 0.301E-05
CGA:  21    -0.808808959602E+03   -0.15179E-03   -0.15189E-03  2208   0.184E-02-0.104E-05
CGA:  22    -0.808809074934E+03   -0.11533E-03   -0.11535E-03  2208   0.174E-02-0.274E-05
CGA:  23    -0.808809173307E+03   -0.98372E-04   -0.98371E-04  2208   0.117E-02-0.171E-06
CGA:  24    -0.808809279306E+03   -0.10600E-03   -0.10588E-03  2208   0.120E-02 0.336E-05
CGA:  25    -0.808809340991E+03   -0.61685E-04   -0.61690E-04  2208   0.854E-03 0.638E-06
CGA:  26    -0.808809374664E+03   -0.33673E-04   -0.33688E-04  2208   0.454E-03 0.924E-07
CGA:  27    -0.808809416873E+03   -0.42209E-04   -0.42232E-04  2208   0.549E-03-0.771E-06
CGA:  28    -0.808809460712E+03   -0.43839E-04   -0.43865E-04  2208   0.433E-03-0.138E-05
CGA:  29    -0.808809477704E+03   -0.16992E-04   -0.16978E-04  2208   0.217E-03-0.801E-06
CGA:  30    -0.808809491712E+03   -0.14008E-04   -0.14012E-04  2208   0.221E-03-0.814E-06
CGA:  31    -0.808809503624E+03   -0.11912E-04   -0.11909E-04  2208   0.214E-03-0.619E-06
SDA:  32    -0.808809519626E+03   -0.16002E-04   -0.16022E-04  2208   0.112E-03-0.140E-05
CGA:  33    -0.808809523611E+03   -0.39849E-05   -0.39908E-05  2208   0.433E-04 0.161E-06
  17 F= -.80880952E+03 E0= -.80877576E+03  d E =-.716818E-02  mag=    66.0000
       N       E                     dE             d eps       ncg     rms          ort
SDA:   1    -0.808083923686E+03    0.72560E+00    0.00000E+00  2208   0.307E+01 0.000E+00
CGA:   2    -0.808427868673E+03   -0.34394E+00   -0.34301E+00  2208   0.470E+01 0.166E-01
CGA:   3    -0.808610399822E+03   -0.18253E+00   -0.18278E+00  2208   0.113E+01-0.148E-02
CGA:   4    -0.808674311880E+03   -0.63912E-01   -0.63916E-01  2208   0.953E+00 0.570E-03
CGA:   5    -0.808739451240E+03   -0.65139E-01   -0.65085E-01  2208   0.106E+01 0.497E-02
CGA:   6    -0.808780893664E+03   -0.41442E-01   -0.41073E-01  2208   0.221E+00 0.201E-02
CGA:   7    -0.808792296084E+03   -0.11402E-01   -0.11415E-01  2208   0.147E+00 0.490E-03
CGA:   8    -0.808803517800E+03   -0.11222E-01   -0.11224E-01  2208   0.103E+00-0.899E-04
CGA:   9    -0.808809397637E+03   -0.58798E-02   -0.58796E-02  2208   0.314E-01-0.306E-04
CGA:  10    -0.808810955385E+03   -0.15577E-02   -0.15582E-02  2208   0.142E-01 0.111E-04
CGA:  11    -0.808811999463E+03   -0.10441E-02   -0.10440E-02  2208   0.202E-01 0.933E-05
CGA:  12    -0.808812958130E+03   -0.95867E-03   -0.95834E-03  2208   0.976E-02-0.150E-05
CGA:  13    -0.808813468177E+03   -0.51005E-03   -0.51000E-03  2208   0.492E-02-0.644E-06
CGA:  14    -0.808813724061E+03   -0.25588E-03   -0.25590E-03  2208   0.355E-02 0.110E-05
CGA:  15    -0.808814039313E+03   -0.31525E-03   -0.31515E-03  2208   0.417E-02 0.343E-05
CGA:  16    -0.808814334853E+03   -0.29554E-03   -0.29551E-03  2208   0.242E-02 0.251E-05
CGA:  17    -0.808814495283E+03   -0.16043E-03   -0.16042E-03  2208   0.200E-02 0.195E-05
CGA:  18    -0.808814610061E+03   -0.11478E-03   -0.11478E-03  2208   0.216E-02 0.116E-05
CGA:  19    -0.808814740788E+03   -0.13073E-03   -0.13073E-03  2208   0.179E-02 0.411E-05
CGA:  20    -0.808814855540E+03   -0.11475E-03   -0.11475E-03  2208   0.118E-02 0.212E-05
CGA:  21    -0.808814921645E+03   -0.66105E-04   -0.66108E-04  2208   0.518E-03 0.540E-06
CGA:  22    -0.808814964808E+03   -0.43164E-04   -0.43191E-04  2208   0.573E-03-0.115E-05
CGA:  23    -0.808815004387E+03   -0.39579E-04   -0.39585E-04  2208   0.594E-03-0.833E-06
CGA:  24    -0.808815031289E+03   -0.26902E-04   -0.26894E-04  2208   0.232E-03-0.475E-06
CGA:  25    -0.808815043968E+03   -0.12679E-04   -0.12681E-04  2208   0.224E-03 0.916E-07
CGA:  26    -0.808815057891E+03   -0.13923E-04   -0.13923E-04  2208   0.186E-03 0.719E-07
CGA:  27    -0.808815074451E+03   -0.16560E-04   -0.16533E-04  2208   0.137E-03 0.947E-06
CGA:  28    -0.808815083077E+03   -0.86254E-05   -0.86252E-05  2208   0.714E-04 0.221E-06
  18 F= -.80881508E+03 E0= -.80878131E+03  d E =-.555947E-02  mag=    66.0000
       N       E                     dE             d eps       ncg     rms          ort
SDA:   1    -0.808322877106E+03    0.49220E+00    0.00000E+00  2208   0.237E+01 0.000E+00
CGA:   2    -0.808490920001E+03   -0.16804E+00   -0.16753E+00  2208   0.431E+01 0.389E-01
CGA:   3    -0.808708820499E+03   -0.21790E+00   -0.21715E+00  2208   0.773E+00-0.121E-01
CGA:   4    -0.808736806773E+03   -0.27986E-01   -0.28345E-01  2208   0.373E+00-0.253E-02
CGA:   5    -0.808777842501E+03   -0.41036E-01   -0.41014E-01  2208   0.442E+00 0.488E-03
CGA:   6    -0.808797335099E+03   -0.19493E-01   -0.19487E-01  2208   0.149E+00 0.640E-04
CGA:   7    -0.808803388405E+03   -0.60533E-02   -0.60245E-02  2208   0.868E-01 0.864E-04
CGA:   8    -0.808809639403E+03   -0.62510E-02   -0.62508E-02  2208   0.697E-01 0.307E-04
CGA:   9    -0.808812801683E+03   -0.31623E-02   -0.31623E-02  2208   0.337E-01 0.625E-05
CGA:  10    -0.808814445928E+03   -0.16442E-02   -0.16449E-02  2208   0.121E-01 0.168E-04
CGA:  11    -0.808815185505E+03   -0.73958E-03   -0.73957E-03  2208   0.975E-02 0.165E-05
CGA:  12    -0.808815833401E+03   -0.64790E-03   -0.64781E-03  2208   0.120E-01 0.108E-04
CGA:  13    -0.808816449489E+03   -0.61609E-03   -0.61596E-03  2208   0.543E-02-0.232E-05
CGA:  14    -0.808816731797E+03   -0.28231E-03   -0.28235E-03  2208   0.281E-02 0.241E-05
CGA:  15    -0.808816990935E+03   -0.25914E-03   -0.25923E-03  2208   0.443E-02-0.185E-05
CGA:  16    -0.808817297564E+03   -0.30663E-03   -0.30656E-03  2208   0.430E-02 0.659E-05
CGA:  17    -0.808817484777E+03   -0.18721E-03   -0.18722E-03  2208   0.216E-02 0.842E-06
CGA:  18    -0.808817625354E+03   -0.14058E-03   -0.14058E-03  2208   0.175E-02 0.688E-06
CGA:  19    -0.808817772381E+03   -0.14703E-03   -0.14708E-03  2208   0.192E-02-0.196E-05
CGA:  20    -0.808817892412E+03   -0.12003E-03   -0.12003E-03  2208   0.142E-02 0.638E-06
CGA:  21    -0.808817946343E+03   -0.53931E-04   -0.53936E-04  2208   0.593E-03 0.858E-06
CGA:  22    -0.808817990879E+03   -0.44536E-04   -0.44500E-04  2208   0.526E-03 0.258E-05
CGA:  23    -0.808818021838E+03   -0.30958E-04   -0.30962E-04  2208   0.421E-03 0.148E-05
CGA:  24    -0.808818050087E+03   -0.28249E-04   -0.28243E-04  2208   0.352E-03 0.121E-05
CGA:  25    -0.808818067070E+03   -0.16983E-04   -0.16990E-04  2208   0.155E-03 0.531E-06
CGA:  26    -0.808818076191E+03   -0.91207E-05   -0.91206E-05  2208   0.182E-03-0.605E-08
CGA:  27    -0.808818089438E+03   -0.13247E-04   -0.13259E-04  2208   0.145E-03-0.974E-06
CGA:  28    -0.808818099092E+03   -0.96530E-05   -0.96563E-05  2208   0.105E-03-0.559E-06
  19 F= -.80881810E+03 E0= -.80878438E+03  d E =-.301601E-02  mag=    66.0000
       N       E                     dE             d eps       ncg     rms          ort
SDA:   1    -0.794660145490E+03    0.14158E+02    0.00000E+00  2208   0.571E+02 0.000E+00
CGA:   2    -0.802802035452E+03   -0.81419E+01   -0.81629E+01  2208   0.909E+02-0.582E+00
CGA:   3    -0.805803231595E+03   -0.30012E+01   -0.27828E+01  2208   0.111E+02 0.738E+01
CGA:   4    -0.806641037850E+03   -0.83781E+00   -0.83723E+00  2208   0.185E+02 0.568E-01
CGA:   5    -0.807913965870E+03   -0.12729E+01   -0.12754E+01  2208   0.821E+01-0.316E+00
CGA:   6    -0.808246563909E+03   -0.33260E+00   -0.33179E+00  2208   0.316E+01 0.106E-02
CGA:   7    -0.808416772400E+03   -0.17021E+00   -0.16988E+00  2208   0.325E+01-0.105E-01
CGA:   8    -0.808614693499E+03   -0.19792E+00   -0.19796E+00  2208   0.161E+01 0.105E-01
CGA:   9    -0.808679663194E+03   -0.64970E-01   -0.64734E-01  2208   0.639E+00 0.617E-03
CGA:  10    -0.808709213193E+03   -0.29550E-01   -0.29581E-01  2208   0.353E+00 0.381E-03
CGA:  11    -0.808730511986E+03   -0.21299E-01   -0.21299E-01  2208   0.343E+00-0.217E-03
CGA:  12    -0.808756128550E+03   -0.25617E-01   -0.25587E-01  2208   0.270E+00 0.147E-02
CGA:  13    -0.808767231491E+03   -0.11103E-01   -0.11122E-01  2208   0.110E+00 0.540E-04
CGA:  14    -0.808773326512E+03   -0.60950E-02   -0.61003E-02  2208   0.865E-01 0.489E-03
CGA:  15    -0.808779035695E+03   -0.57092E-02   -0.57093E-02  2208   0.121E+00 0.200E-04
CGA:  16    -0.808787854414E+03   -0.88187E-02   -0.88129E-02  2208   0.848E-01 0.338E-03
CGA:  17    -0.808791738612E+03   -0.38842E-02   -0.38835E-02  2208   0.448E-01 0.835E-05
CGA:  18    -0.808794248008E+03   -0.25094E-02   -0.25110E-02  2208   0.411E-01 0.163E-03
CGA:  19    -0.808798343321E+03   -0.40953E-02   -0.40960E-02  2208   0.487E-01-0.175E-04
CGA:  20    -0.808801011878E+03   -0.26686E-02   -0.26699E-02  2208   0.330E-01 0.485E-04
CGA:  21    -0.808802446114E+03   -0.14342E-02   -0.14337E-02  2208   0.156E-01-0.596E-05
CGA:  22    -0.808803447724E+03   -0.10016E-02   -0.10015E-02  2208   0.167E-01 0.256E-04
CGA:  23    -0.808804435048E+03   -0.98732E-03   -0.98731E-03  2208   0.131E-01 0.131E-04
CGA:  24    -0.808805409752E+03   -0.97470E-03   -0.97385E-03  2208   0.103E-01 0.531E-04
CGA:  25    -0.808805889033E+03   -0.47928E-03   -0.47941E-03  2208   0.578E-02 0.108E-04
CGA:  26    -0.808806220775E+03   -0.33174E-03   -0.33174E-03  2208   0.390E-02 0.350E-06
CGA:  27    -0.808806524857E+03   -0.30408E-03   -0.30427E-03  2208   0.630E-02-0.945E-05
CGA:  28    -0.808806868366E+03   -0.34351E-03   -0.34346E-03  2208   0.343E-02-0.938E-05
CGA:  29    -0.808807039097E+03   -0.17073E-03   -0.17072E-03  2208   0.160E-02-0.295E-05
CGA:  30    -0.808807132902E+03   -0.93806E-04   -0.93811E-04  2208   0.131E-02 0.247E-05
CGA:  31    -0.808807244332E+03   -0.11143E-03   -0.11128E-03  2208   0.185E-02 0.577E-05
SDA:  32    -0.808807334342E+03   -0.90009E-04   -0.90091E-04  2208   0.787E-03 0.583E-05
CGA:  33    -0.808807361706E+03   -0.27364E-04   -0.27331E-04  2208   0.455E-03-0.765E-06
CGA:  34    -0.808807388141E+03   -0.26435E-04   -0.26434E-04  2208   0.420E-03-0.134E-05
CGA:  35    -0.808807419993E+03   -0.31852E-04   -0.31880E-04  2208   0.471E-03-0.185E-05
CGA:  36    -0.808807450134E+03   -0.30141E-04   -0.30141E-04  2208   0.221E-03-0.206E-06
CGA:  37    -0.808807465799E+03   -0.15665E-04   -0.15637E-04  2208   0.156E-03 0.254E-05
CGA:  38    -0.808807477032E+03   -0.11233E-04   -0.11203E-04  2208   0.185E-03 0.293E-05
CGA:  39    -0.808807487923E+03   -0.10891E-04   -0.10902E-04  2208   0.104E-03 0.302E-05
CGA:  40    -0.808807495216E+03   -0.72931E-05   -0.72861E-05  2208   0.132E-03 0.815E-06
  20 F= -.80880750E+03 E0= -.80877395E+03  d E =0.106039E-01  mag=    66.0000
       N       E                     dE             d eps       ncg     rms          ort
SDA:   1    -0.806564926812E+03    0.22426E+01    0.00000E+00  2208   0.963E+01 0.000E+00
CGA:   2    -0.807675657951E+03   -0.11107E+01   -0.10921E+01  2208   0.168E+02 0.316E+00
CGA:   3    -0.808239467485E+03   -0.56381E+00   -0.54041E+00  2208   0.296E+01 0.518E+00
CGA:   4    -0.808395866186E+03   -0.15640E+00   -0.15631E+00  2208   0.272E+01-0.280E-02
CGA:   5    -0.808634755530E+03   -0.23889E+00   -0.23979E+00  2208   0.160E+01-0.277E-01
CGA:   6    -0.808718773276E+03   -0.84018E-01   -0.84255E-01  2208   0.628E+00 0.773E-02
CGA:   7    -0.808755864180E+03   -0.37091E-01   -0.37122E-01  2208   0.493E+00 0.355E-02
CGA:   8    -0.808778209431E+03   -0.22345E-01   -0.22395E-01  2208   0.349E+00 0.524E-03
CGA:   9    -0.808797170547E+03   -0.18961E-01   -0.18939E-01  2208   0.148E+00-0.101E-02
CGA:  10    -0.808803530857E+03   -0.63603E-02   -0.63750E-02  2208   0.533E-01 0.857E-04
CGA:  11    -0.808806194605E+03   -0.26637E-02   -0.26662E-02  2208   0.434E-01 0.771E-04
CGA:  12    -0.808810145319E+03   -0.39507E-02   -0.39500E-02  2208   0.380E-01 0.254E-04
CGA:  13    -0.808811975560E+03   -0.18302E-02   -0.18306E-02  2208   0.223E-01 0.127E-04
CGA:  14    -0.808812812862E+03   -0.83730E-03   -0.83839E-03  2208   0.104E-01 0.282E-05
CGA:  15    -0.808813722744E+03   -0.90988E-03   -0.90978E-03  2208   0.151E-01 0.673E-05
CGA:  16    -0.808815059898E+03   -0.13372E-02   -0.13363E-02  2208   0.914E-02 0.292E-04
CGA:  17    -0.808815529139E+03   -0.46924E-03   -0.46939E-03  2208   0.695E-02 0.830E-05
CGA:  18    -0.808815893256E+03   -0.36412E-03   -0.36437E-03  2208   0.666E-02 0.127E-04
CGA:  19    -0.808816483137E+03   -0.58988E-03   -0.58991E-03  2208   0.815E-02 0.305E-06
CGA:  20    -0.808816864325E+03   -0.38119E-03   -0.38130E-03  2208   0.327E-02 0.199E-05
CGA:  21    -0.808817052575E+03   -0.18825E-03   -0.18826E-03  2208   0.223E-02-0.828E-07
CGA:  22    -0.808817196966E+03   -0.14439E-03   -0.14439E-03  2208   0.242E-02-0.138E-05
CGA:  23    -0.808817366395E+03   -0.16943E-03   -0.16948E-03  2208   0.204E-02-0.523E-05
CGA:  24    -0.808817453238E+03   -0.86842E-04   -0.86827E-04  2208   0.111E-02-0.650E-06
CGA:  25    -0.808817511740E+03   -0.58503E-04   -0.58510E-04  2208   0.686E-03 0.847E-06
CGA:  26    -0.808817572977E+03   -0.61237E-04   -0.61175E-04  2208   0.620E-03 0.212E-05
CGA:  27    -0.808817623645E+03   -0.50668E-04   -0.50641E-04  2208   0.800E-03 0.138E-05
CGA:  28    -0.808817653859E+03   -0.30213E-04   -0.30230E-04  2208   0.326E-03 0.690E-06
CGA:  29    -0.808817676035E+03   -0.22177E-04   -0.22182E-04  2208   0.228E-03-0.904E-06
CGA:  30    -0.808817689949E+03   -0.13914E-04   -0.13913E-04  2208   0.253E-03-0.818E-06
CGA:  31    -0.808817708027E+03   -0.18077E-04   -0.18094E-04  2208   0.183E-03-0.177E-05
SDA:  32    -0.808817718024E+03   -0.99972E-05   -0.99941E-05  2208   0.101E-03-0.475E-06
  21 F= -.80881772E+03 E0= -.80878366E+03  d E =-.102228E-01  mag=    66.0000
       N       E                     dE             d eps       ncg     rms          ort
SDA:   1    -0.808073738130E+03    0.74397E+00    0.00000E+00  2208   0.442E+01 0.000E+00
CGA:   2    -0.808261302152E+03   -0.18756E+00   -0.18593E+00  2208   0.408E+01 0.751E-02
CGA:   3    -0.808632881646E+03   -0.37158E+00   -0.37154E+00  2208   0.162E+01-0.222E-03
CGA:   4    -0.808683417008E+03   -0.50535E-01   -0.50924E-01  2208   0.708E+00-0.574E-02
CGA:   5    -0.808731071212E+03   -0.47654E-01   -0.47775E-01  2208   0.871E+00-0.862E-02
CGA:   6    -0.808785756090E+03   -0.54685E-01   -0.54679E-01  2208   0.270E+00 0.992E-03
CGA:   7    -0.808799598210E+03   -0.13842E-01   -0.13852E-01  2208   0.110E+00 0.369E-03
CGA:   8    -0.808807888060E+03   -0.82898E-02   -0.82857E-02  2208   0.133E+00 0.206E-03
CGA:   9    -0.808813364802E+03   -0.54767E-02   -0.54703E-02  2208   0.570E-01 0.677E-05
CGA:  10    -0.808815993810E+03   -0.26290E-02   -0.26294E-02  2208   0.233E-01 0.200E-04
CGA:  11    -0.808817058333E+03   -0.10645E-02   -0.10636E-02  2208   0.114E-01-0.135E-04
CGA:  12    -0.808818137690E+03   -0.10794E-02   -0.10790E-02  2208   0.158E-01 0.962E-05
CGA:  13    -0.808818926876E+03   -0.78919E-03   -0.78939E-03  2208   0.779E-02 0.534E-05
CGA:  14    -0.808819349423E+03   -0.42255E-03   -0.42258E-03  2208   0.521E-02 0.759E-06
CGA:  15    -0.808819618025E+03   -0.26860E-03   -0.26858E-03  2208   0.447E-02-0.117E-05
CGA:  16    -0.808819928571E+03   -0.31055E-03   -0.31043E-03  2208   0.563E-02 0.776E-05
CGA:  17    -0.808820336085E+03   -0.40751E-03   -0.40738E-03  2208   0.295E-02 0.783E-05
CGA:  18    -0.808820569007E+03   -0.23292E-03   -0.23290E-03  2208   0.205E-02 0.134E-05
CGA:  19    -0.808820704800E+03   -0.13579E-03   -0.13579E-03  2208   0.308E-02-0.309E-06
CGA:  20    -0.808820865336E+03   -0.16054E-03   -0.16057E-03  2208   0.167E-02 0.168E-05
CGA:  21    -0.808820989521E+03   -0.12419E-03   -0.12417E-03  2208   0.114E-02 0.580E-06
CGA:  22    -0.808821040044E+03   -0.50522E-04   -0.50526E-04  2208   0.582E-03 0.106E-06
CGA:  23    -0.808821078382E+03   -0.38338E-04   -0.38335E-04  2208   0.512E-03 0.571E-06
CGA:  24    -0.808821121931E+03   -0.43550E-04   -0.43526E-04  2208   0.616E-03 0.754E-06
CGA:  25    -0.808821147380E+03   -0.25448E-04   -0.25449E-04  2208   0.250E-03 0.208E-06
CGA:  26    -0.808821158777E+03   -0.11397E-04   -0.11400E-04  2208   0.168E-03 0.382E-08
CGA:  27    -0.808821175967E+03   -0.17190E-04   -0.17211E-04  2208   0.216E-03-0.702E-06
CGA:  28    -0.808821190745E+03   -0.14779E-04   -0.14781E-04  2208   0.142E-03-0.581E-06
CGA:  29    -0.808821197231E+03   -0.64854E-05   -0.64837E-05  2208   0.700E-04-0.260E-06
  22 F= -.80882120E+03 E0= -.80878725E+03  d E =-.347921E-02  mag=    66.0000
       N       E                     dE             d eps       ncg     rms          ort
SDA:   1    -0.808731695405E+03    0.89495E-01    0.00000E+00  2208   0.492E+00 0.000E+00
CGA:   2    -0.808750313407E+03   -0.18618E-01   -0.18792E-01  2208   0.479E+00-0.588E-03
CGA:   3    -0.808791512694E+03   -0.41199E-01   -0.41230E-01  2208   0.261E+00-0.938E-03
CGA:   4    -0.808802435290E+03   -0.10923E-01   -0.10926E-01  2208   0.104E+00 0.102E-04
CGA:   5    -0.808810339022E+03   -0.79037E-02   -0.79070E-02  2208   0.117E+00-0.148E-03
CGA:   6    -0.808817008574E+03   -0.66696E-02   -0.66712E-02  2208   0.529E-01 0.183E-03
CGA:   7    -0.808818988873E+03   -0.19803E-02   -0.19755E-02  2208   0.203E-01 0.262E-04
CGA:   8    -0.808819969984E+03   -0.98111E-03   -0.98111E-03  2208   0.119E-01 0.158E-05
CGA:   9    -0.808820696022E+03   -0.72604E-03   -0.72606E-03  2208   0.109E-01-0.378E-05
CGA:  10    -0.808821228629E+03   -0.53261E-03   -0.53270E-03  2208   0.280E-02 0.558E-05
CGA:  11    -0.808821383218E+03   -0.15459E-03   -0.15460E-03  2208   0.148E-02 0.115E-05
CGA:  12    -0.808821478778E+03   -0.95560E-04   -0.95559E-04  2208   0.163E-02 0.355E-06
CGA:  13    -0.808821551466E+03   -0.72688E-04   -0.72673E-04  2208   0.911E-03-0.505E-06
CGA:  14    -0.808821612412E+03   -0.60947E-04   -0.60945E-04  2208   0.562E-03-0.906E-07
CGA:  15    -0.808821645325E+03   -0.32913E-04   -0.32912E-04  2208   0.280E-03-0.724E-06
CGA:  16    -0.808821666772E+03   -0.21447E-04   -0.21446E-04  2208   0.413E-03 0.983E-07
CGA:  17    -0.808821689205E+03   -0.22432E-04   -0.22430E-04  2208   0.334E-03-0.260E-06
CGA:  18    -0.808821711820E+03   -0.22615E-04   -0.22614E-04  2208   0.222E-03 0.130E-06
CGA:  19    -0.808821721292E+03   -0.94719E-05   -0.94750E-05  2208   0.133E-03 0.168E-06
CGA:  20    -0.808821733335E+03   -0.12044E-04   -0.12030E-04  2208   0.146E-03 0.362E-06
CGA:  21    -0.808821744298E+03   -0.10962E-04   -0.10958E-04  2208   0.141E-03 0.275E-06
CGA:  22    -0.808821750172E+03   -0.58745E-05   -0.58796E-05  2208   0.462E-04 0.195E-06
  23 F= -.80882175E+03 E0= -.80878794E+03  d E =-.552941E-03  mag=    66.0000
