       N       E                     dE             d eps       ncg     rms          ort
DAV:   1     0.180742262917E+05    0.18074E+05   -0.67556E+05  1536   0.178E+03
DAV:   2     0.158608749273E+04   -0.16488E+05   -0.15856E+05  1536   0.551E+02
DAV:   3    -0.141233536398E+04   -0.29984E+04   -0.28925E+04  1536   0.215E+02
DAV:   4    -0.164411400666E+04   -0.23178E+03   -0.22037E+03  1536   0.633E+01
DAV:   5    -0.165613348777E+04   -0.12019E+02   -0.11217E+02  1536   0.134E+01
SDA:   6    -0.202504894143E+03    0.14536E+04   -0.11217E+02  1536   0.872E+04 0.000E+00
CGA:   7    -0.871680740078E+03   -0.66918E+03   -0.70346E+03  1536   0.102E+05-0.670E+03
CGA:   8    -0.107112971211E+04   -0.19945E+03   -0.37917E+03  1536   0.388E+04-0.340E+04
CGA:   9    -0.114268247941E+04   -0.71553E+02   -0.61368E+02  1536   0.514E+03 0.329E+03
CGA:  10    -0.116835525283E+04   -0.25673E+02   -0.36912E+02  1536   0.151E+04-0.112E+03
CGA:  11    -0.119557283169E+04   -0.27218E+02   -0.35139E+02  1536   0.181E+04-0.558E+03
CGA:  12    -0.123267521127E+04   -0.37102E+02   -0.26009E+02  1536   0.927E+03 0.605E+03
CGA:  13    -0.119752324550E+04    0.35152E+02   -0.39549E+02  1536   0.348E+04-0.153E+04
CGA:  14    -0.120771510148E+04   -0.10192E+02   -0.93283E+02  1536   0.285E+04-0.259E+04
CGA:  15    -0.121426032209E+04   -0.65452E+01   -0.75918E+02  1536   0.341E+04-0.323E+04
CGA:  16    -0.122975608626E+04   -0.15496E+02   -0.83942E+02  1536   0.236E+04-0.254E+04
CGA:  17    -0.123581096896E+04   -0.60549E+01   -0.60170E+02  1536   0.248E+04-0.246E+04
CGA:  18    -0.125223899018E+04   -0.16428E+02   -0.55634E+02  1536   0.153E+04-0.189E+04
CGA:  19    -0.125646066983E+04   -0.42217E+01   -0.37077E+02  1536   0.139E+04-0.138E+04
CGA:  20    -0.126687894206E+04   -0.10418E+02   -0.29176E+02  1536   0.848E+03-0.109E+04
CGA:  21    -0.127125966977E+04   -0.43807E+01   -0.18393E+02  1536   0.559E+03-0.596E+03
CGA:  22    -0.127473628703E+04   -0.34766E+01   -0.11997E+02  1536   0.459E+03-0.487E+03
CGA:  23    -0.127822364744E+04   -0.34874E+01   -0.89310E+01  1536   0.226E+03-0.250E+03
CGA:  24    -0.128065487349E+04   -0.24312E+01   -0.42763E+01  1536   0.124E+03-0.122E+03
CGA:  25    -0.128214736692E+04   -0.14925E+01   -0.23540E+01  1536   0.714E+02-0.402E+02
CGA:  26    -0.128923737571E+04   -0.70900E+01   -0.83401E+01  1536   0.287E+03-0.168E+02
CGA:  27    -0.129412178466E+04   -0.48844E+01   -0.54355E+01  1536   0.409E+02 0.115E+02
CGA:  28    -0.129493640061E+04   -0.81462E+00   -0.10283E+01  1536   0.325E+02-0.813E+01
CGA:  29    -0.129577494963E+04   -0.83855E+00   -0.97629E+00  1536   0.266E+02-0.193E+01
CGA:  30    -0.129691015501E+04   -0.11352E+01   -0.12439E+01  1536   0.314E+02-0.579E+00
CGA:  31    -0.129823524885E+04   -0.13251E+01   -0.14003E+01  1536   0.137E+02-0.198E+00
CGA:  32    -0.129884669214E+04   -0.61144E+00   -0.61652E+00  1536   0.608E+01-0.429E-01
CGA:  33    -0.129928109976E+04   -0.43441E+00   -0.43934E+00  1536   0.627E+01 0.225E+00
CGA:  34    -0.129978035662E+04   -0.49926E+00   -0.49930E+00  1536   0.458E+01 0.947E-02
CGA:  35    -0.130006075344E+04   -0.28040E+00   -0.29102E+00  1536   0.293E+01 0.153E+00
CGA:  36    -0.130030432076E+04   -0.24357E+00   -0.24347E+00  1536   0.237E+01 0.626E-01
CGA:  37    -0.130062873351E+04   -0.32441E+00   -0.31380E+00  1536   0.179E+01 0.175E+00
CGA:  38    -0.130078875192E+04   -0.16002E+00   -0.16011E+00  1536   0.136E+01-0.371E-01
CGA:  39    -0.130098570151E+04   -0.19695E+00   -0.18614E+00  1536   0.106E+01 0.145E+00
CGA:  40    -0.130109046212E+04   -0.10476E+00   -0.10479E+00  1536   0.626E+00-0.419E-02
CGA:  41    -0.130116271227E+04   -0.72250E-01   -0.72880E-01  1536   0.818E+00-0.159E-01
CGA:  42    -0.130125377154E+04   -0.91059E-01   -0.91598E-01  1536   0.482E+00-0.146E-01
CGA:  43    -0.130129593537E+04   -0.42164E-01   -0.42171E-01  1536   0.301E+00-0.563E-02
CGA:  44    -0.130133464923E+04   -0.38714E-01   -0.39246E-01  1536   0.478E+00-0.103E-01
CGA:  45    -0.130137848041E+04   -0.43831E-01   -0.43858E-01  1536   0.282E+00-0.314E-02
CGA:  46    -0.130140913270E+04   -0.30652E-01   -0.30837E-01  1536   0.241E+00-0.620E-02
CGA:  47    -0.130143803738E+04   -0.28905E-01   -0.28990E-01  1536   0.201E+00-0.180E-02
CGA:  48    -0.130145415632E+04   -0.16119E-01   -0.16072E-01  1536   0.138E+00-0.649E-03
CGA:  49    -0.130146877554E+04   -0.14619E-01   -0.14668E-01  1536   0.199E+00-0.189E-02
CGA:  50    -0.130148894313E+04   -0.20168E-01   -0.20201E-01  1536   0.109E+00-0.163E-02
CGA:  51    -0.130149827159E+04   -0.93285E-02   -0.93223E-02  1536   0.996E-01 0.157E-03
CGA:  52    -0.130151044008E+04   -0.12168E-01   -0.12631E-01  1536   0.180E+00-0.101E-01
CGA:  53    -0.130151871632E+04   -0.82762E-02   -0.73650E-02  1536   0.880E-01 0.117E-01
CGA:  54    -0.130152286112E+04   -0.41448E-02   -0.40160E-02  1536   0.694E-01 0.203E-02
SDA:  55    -0.130152736138E+04   -0.45003E-02   -0.44925E-02  1536   0.999E-01 0.208E-03
CGA:  56    -0.130153250695E+04   -0.51456E-02   -0.50994E-02  1536   0.497E-01 0.236E-03
CGA:  57    -0.130154152720E+04   -0.90203E-02   -0.92160E-02  1536   0.168E+00-0.209E-02
CGA:  58    -0.130156139212E+04   -0.19865E-01   -0.24805E-01  1536   0.235E+00-0.832E-01
CGA:  59    -0.130156385849E+04   -0.24664E-02   -0.20895E-02  1536   0.161E+00 0.185E-01
CGA:  60    -0.130156753262E+04   -0.36741E-02   -0.34847E-02  1536   0.621E-01 0.796E-02
CGA:  61    -0.130156948555E+04   -0.19529E-02   -0.19260E-02  1536   0.560E-01 0.609E-03
CGA:  62    -0.130157148893E+04   -0.20034E-02   -0.19880E-02  1536   0.560E-01 0.291E-03
CGA:  63    -0.130157305189E+04   -0.15630E-02   -0.15559E-02  1536   0.362E-01 0.272E-03
CGA:  64    -0.130157398047E+04   -0.92858E-03   -0.92850E-03  1536   0.221E-01 0.145E-03
CGA:  65    -0.130157459255E+04   -0.61208E-03   -0.61409E-03  1536   0.172E-01 0.124E-03
CGA:  66    -0.130157515889E+04   -0.56634E-03   -0.56842E-03  1536   0.191E-01 0.173E-03
CGA:  67    -0.130157590567E+04   -0.74678E-03   -0.74660E-03  1536   0.278E-01 0.293E-03
CGA:  68    -0.130157693111E+04   -0.10254E-02   -0.10231E-02  1536   0.312E-01 0.515E-03
CGA:  69    -0.130157773370E+04   -0.80259E-03   -0.81527E-03  1536   0.175E-01 0.260E-03
CGA:  70    -0.130157814075E+04   -0.40705E-03   -0.41584E-03  1536   0.108E-01 0.746E-04
CGA:  71    -0.130157847581E+04   -0.33506E-03   -0.34015E-03  1536   0.115E-01 0.106E-03
CGA:  72    -0.130157889653E+04   -0.42072E-03   -0.42498E-03  1536   0.151E-01 0.148E-03
CGA:  73    -0.130157946511E+04   -0.56857E-03   -0.57122E-03  1536   0.189E-01 0.211E-03
CGA:  74    -0.130158001871E+04   -0.55361E-03   -0.55105E-03  1536   0.134E-01 0.360E-03
CGA:  75    -0.130158034082E+04   -0.32211E-03   -0.31974E-03  1536   0.794E-02 0.258E-03
CGA:  76    -0.130158055972E+04   -0.21890E-03   -0.21796E-03  1536   0.681E-02 0.858E-04
CGA:  77    -0.130158077545E+04   -0.21573E-03   -0.21483E-03  1536   0.781E-02 0.262E-04
CGA:  78    -0.130158103877E+04   -0.26332E-03   -0.26241E-03  1536   0.949E-02-0.152E-04
CGA:  79    -0.130158129813E+04   -0.25936E-03   -0.25854E-03  1536   0.677E-02-0.547E-04
CGA:  80    -0.130158144245E+04   -0.14432E-03   -0.14266E-03  1536   0.336E-02-0.466E-04
CGA:  81    -0.130158152315E+04   -0.80698E-04   -0.78932E-04  1536   0.248E-02-0.492E-04
CGA:  82    -0.130158160195E+04   -0.78800E-04   -0.76901E-04  1536   0.311E-02-0.916E-04
CGA:  83    -0.130158171337E+04   -0.11142E-03   -0.10889E-03  1536   0.483E-02-0.181E-03
CGA:  84    -0.130158185357E+04   -0.14020E-03   -0.13475E-03  1536   0.490E-02-0.239E-03
CGA:  85    -0.130158195596E+04   -0.10239E-03   -0.97452E-04  1536   0.264E-02-0.189E-03
SDA:  86    -0.130158200900E+04   -0.53037E-04   -0.50496E-04  1536   0.157E-02-0.106E-03
CGA:  87    -0.130158217643E+04   -0.16743E-03   -0.16715E-03  1536   0.268E-02 0.240E-05
CGA:  88    -0.130158240129E+04   -0.22487E-03   -0.22369E-03  1536   0.334E-02 0.306E-04
CGA:  89    -0.130158258168E+04   -0.18039E-03   -0.18028E-03  1536   0.880E-03 0.241E-04
CGA:  90    -0.130158264450E+04   -0.62816E-04   -0.62316E-04  1536   0.646E-03 0.234E-04
CGA:  91    -0.130158271885E+04   -0.74354E-04   -0.71648E-04  1536   0.837E-03 0.465E-04
CGA:  92    -0.130158276809E+04   -0.49243E-04   -0.49191E-04  1536   0.309E-03 0.308E-04
CGA:  93    -0.130158278516E+04   -0.17068E-04   -0.17068E-04  1536   0.194E-03 0.824E-05
CGA:  94    -0.130158280489E+04   -0.19729E-04   -0.19608E-04  1536   0.290E-03 0.210E-05
CGA:  95    -0.130158282374E+04   -0.18847E-04   -0.18874E-04  1536   0.106E-03-0.335E-05
CGA:  96    -0.130158282931E+04   -0.55693E-05   -0.55576E-05  1536   0.362E-04-0.457E-05
   1 F= -.13015828E+04 E0= -.13015415E+04  d E =-.130158E+04  mag=    70.0000
       N       E                     dE             d eps       ncg     rms          ort
SDA:   1    -0.130157419565E+04    0.86281E-02    0.00000E+00  1536   0.294E+00 0.000E+00
CGA:   2    -0.130158069749E+04   -0.65018E-02   -0.65093E-02  1536   0.135E-01-0.252E-03
CGA:   3    -0.130158144537E+04   -0.74788E-03   -0.74788E-03  1536   0.993E-02-0.621E-06
CGA:   4    -0.130158213637E+04   -0.69100E-03   -0.69117E-03  1536   0.657E-02-0.127E-04
CGA:   5    -0.130158246929E+04   -0.33292E-03   -0.33285E-03  1536   0.326E-02-0.762E-05
CGA:   6    -0.130158269590E+04   -0.22662E-03   -0.22664E-03  1536   0.257E-02-0.184E-05
CGA:   7    -0.130158291168E+04   -0.21578E-03   -0.21580E-03  1536   0.106E-02-0.930E-06
CGA:   8    -0.130158295990E+04   -0.48213E-04   -0.48213E-04  1536   0.282E-03 0.101E-06
CGA:   9    -0.130158298120E+04   -0.21304E-04   -0.21307E-04  1536   0.350E-03-0.773E-07
CGA:  10    -0.130158300058E+04   -0.19379E-04   -0.19377E-04  1536   0.150E-03-0.360E-06
CGA:  11    -0.130158300797E+04   -0.73878E-05   -0.73830E-05  1536   0.389E-04-0.470E-06
   2 F= -.13015830E+04 E0= -.13015417E+04  d E =-.178660E-03  mag=    70.0000
       N       E                     dE             d eps       ncg     rms          ort
SDA:   1    -0.130157841682E+04    0.45838E-02    0.00000E+00  1536   0.892E-01 0.000E+00
CGA:   2    -0.130158054213E+04   -0.21253E-02   -0.21220E-02  1536   0.108E-01 0.100E-03
CGA:   3    -0.130158147987E+04   -0.93774E-03   -0.93765E-03  1536   0.121E-01 0.409E-05
CGA:   4    -0.130158228084E+04   -0.80097E-03   -0.80096E-03  1536   0.807E-02 0.101E-05
CGA:   5    -0.130158264399E+04   -0.36316E-03   -0.36311E-03  1536   0.307E-02-0.248E-05
CGA:   6    -0.130158289320E+04   -0.24920E-03   -0.24929E-03  1536   0.245E-02-0.395E-05
CGA:   7    -0.130158306536E+04   -0.17216E-03   -0.17221E-03  1536   0.754E-03-0.547E-05
CGA:   8    -0.130158310048E+04   -0.35121E-04   -0.35094E-04  1536   0.349E-03-0.195E-05
CGA:   9    -0.130158312617E+04   -0.25691E-04   -0.25732E-04  1536   0.315E-03-0.289E-05
CGA:  10    -0.130158314621E+04   -0.20047E-04   -0.20057E-04  1536   0.134E-03-0.280E-05
CGA:  11    -0.130158315164E+04   -0.54237E-05   -0.54019E-05  1536   0.501E-04-0.106E-05
   3 F= -.13015832E+04 E0= -.13015418E+04  d E =-.143669E-03  mag=    70.0000
