       N       E                     dE             d eps       ncg     rms          ort
DAV:   1     0.856588336597E+04    0.85659E+04   -0.35779E+05  1728   0.172E+03
DAV:   2     0.605962813651E+03   -0.79599E+04   -0.74318E+04  1728   0.497E+02
DAV:   3    -0.612043498023E+03   -0.12180E+04   -0.11655E+04  1728   0.190E+02
DAV:   4    -0.695096670110E+03   -0.83053E+02   -0.80498E+02  1728   0.466E+01
DAV:   5    -0.700142499781E+03   -0.50458E+01   -0.49967E+01  1728   0.917E+00
SDA:   6    -0.163881344695E+03    0.53626E+03   -0.49967E+01  1728   0.357E+04 0.000E+00
CGA:   7    -0.507719117722E+03   -0.34384E+03   -0.41306E+03  1728   0.362E+03-0.115E+02
CGA:   8    -0.542444131393E+03   -0.34725E+02   -0.43567E+02  1728   0.124E+03 0.154E+02
CGA:   9    -0.555702761582E+03   -0.13259E+02   -0.13315E+02  1728   0.644E+02-0.914E+01
CGA:  10    -0.562479510069E+03   -0.67767E+01   -0.68363E+01  1728   0.609E+02 0.542E+00
CGA:  11    -0.567232243056E+03   -0.47527E+01   -0.53510E+01  1728   0.457E+02-0.697E+01
CGA:  12    -0.570072945265E+03   -0.28407E+01   -0.28755E+01  1728   0.519E+02-0.250E+02
CGA:  13    -0.570447821382E+03   -0.37488E+00   -0.36459E+01  1728   0.313E+02-0.174E+02
CGA:  14    -0.572153927653E+03   -0.17061E+01   -0.19056E+01  1728   0.240E+02-0.511E+01
CGA:  15    -0.574224279019E+03   -0.20704E+01   -0.10378E+01  1728   0.625E+01 0.148E+02
CGA:  16    -0.574387712858E+03   -0.16343E+00   -0.21313E+00  1728   0.453E+01-0.198E+01
CGA:  17    -0.574546630036E+03   -0.15892E+00   -0.19868E+00  1728   0.456E+01-0.484E+00
CGA:  18    -0.574913952210E+03   -0.36732E+00   -0.42926E+00  1728   0.279E+01 0.212E+00
CGA:  19    -0.575075781918E+03   -0.16183E+00   -0.17541E+00  1728   0.203E+01-0.192E+00
CGA:  20    -0.575203265555E+03   -0.12748E+00   -0.14633E+00  1728   0.965E+00-0.744E-01
CGA:  21    -0.575288772841E+03   -0.85507E-01   -0.92858E-01  1728   0.361E+00 0.302E-01
CGA:  22    -0.575323338957E+03   -0.34566E-01   -0.35138E-01  1728   0.185E+00 0.617E-03
CGA:  23    -0.575341464851E+03   -0.18126E-01   -0.18603E-01  1728   0.111E+00 0.240E-02
CGA:  24    -0.575358049502E+03   -0.16585E-01   -0.16557E-01  1728   0.633E-01 0.107E-02
CGA:  25    -0.575367423597E+03   -0.93741E-02   -0.93610E-02  1728   0.621E-01 0.439E-03
CGA:  26    -0.575374346567E+03   -0.69230E-02   -0.69252E-02  1728   0.256E-01-0.264E-03
CGA:  27    -0.575378681930E+03   -0.43354E-02   -0.43406E-02  1728   0.170E-01-0.171E-03
CGA:  28    -0.575380770345E+03   -0.20884E-02   -0.20963E-02  1728   0.838E-02 0.258E-03
CGA:  29    -0.575382157306E+03   -0.13870E-02   -0.13897E-02  1728   0.628E-02-0.894E-04
CGA:  30    -0.575382936846E+03   -0.77954E-03   -0.77942E-03  1728   0.446E-02-0.274E-04
CGA:  31    -0.575383507824E+03   -0.57098E-03   -0.57101E-03  1728   0.202E-02-0.583E-05
CGA:  32    -0.575383829876E+03   -0.32205E-03   -0.32236E-03  1728   0.990E-03-0.644E-05
CGA:  33    -0.575384015784E+03   -0.18591E-03   -0.18551E-03  1728   0.696E-03 0.723E-05
CGA:  34    -0.575384138768E+03   -0.12298E-03   -0.12303E-03  1728   0.449E-03 0.203E-06
CGA:  35    -0.575384191859E+03   -0.53092E-04   -0.53222E-04  1728   0.369E-03 0.584E-05
CGA:  36    -0.575384251711E+03   -0.59852E-04   -0.59638E-04  1728   0.199E-03 0.109E-04
CGA:  37    -0.575384291108E+03   -0.39397E-04   -0.39110E-04  1728   0.162E-03 0.614E-05
CGA:  38    -0.575384317102E+03   -0.25993E-04   -0.25911E-04  1728   0.110E-03 0.698E-05
CGA:  39    -0.575384337871E+03   -0.20770E-04   -0.20544E-04  1728   0.844E-04 0.655E-05
CGA:  40    -0.575384349960E+03   -0.12088E-04   -0.12113E-04  1728   0.770E-04 0.256E-05
CGA:  41    -0.575384362385E+03   -0.12425E-04   -0.12426E-04  1728   0.507E-04-0.110E-06
CGA:  42    -0.575384373830E+03   -0.11445E-04   -0.11880E-04  1728   0.486E-04-0.489E-05
CGA:  43    -0.575384382603E+03   -0.87727E-05   -0.90568E-05  1728   0.366E-04-0.503E-05
   1 F= -.57538438E+03 E0= -.57537695E+03  d E =-.575384E+03  mag=    70.0000
       N       E                     dE             d eps       ncg     rms          ort
SDA:   1    -0.575382607039E+03    0.17668E-02    0.00000E+00  1728   0.826E-02 0.000E+00
CGA:   2    -0.575383588477E+03   -0.98144E-03   -0.97749E-03  1728   0.452E-02-0.216E-04
CGA:   3    -0.575384272868E+03   -0.68439E-03   -0.68441E-03  1728   0.161E-02 0.639E-05
CGA:   4    -0.575384530510E+03   -0.25764E-03   -0.25766E-03  1728   0.619E-03-0.263E-05
CGA:   5    -0.575384599772E+03   -0.69262E-04   -0.69267E-04  1728   0.294E-03-0.113E-06
CGA:   6    -0.575384629221E+03   -0.29448E-04   -0.29464E-04  1728   0.897E-04 0.351E-06
CGA:   7    -0.575384642813E+03   -0.13592E-04   -0.13592E-04  1728   0.260E-04 0.251E-06
CGA:   8    -0.575384647756E+03   -0.49432E-05   -0.49492E-05  1728   0.205E-04-0.132E-06
   2 F= -.57538465E+03 E0= -.57537723E+03  d E =-.265153E-03  mag=    70.0000
       N       E                     dE             d eps       ncg     rms          ort
SDA:   1    -0.575339966712E+03    0.44676E-01    0.00000E+00  1728   0.137E+00 0.000E+00
CGA:   2    -0.575368714096E+03   -0.28747E-01   -0.28748E-01  1728   0.589E-01 0.528E-05
CGA:   3    -0.575381245087E+03   -0.12531E-01   -0.12531E-01  1728   0.181E-01 0.358E-05
CGA:   4    -0.575383819784E+03   -0.25747E-02   -0.25752E-02  1728   0.107E-01 0.147E-04
CGA:   5    -0.575384766618E+03   -0.94683E-03   -0.94500E-03  1728   0.281E-02 0.123E-04
CGA:   6    -0.575385151791E+03   -0.38517E-03   -0.38527E-03  1728   0.733E-03 0.521E-05
CGA:   7    -0.575385283695E+03   -0.13190E-03   -0.13188E-03  1728   0.325E-03 0.102E-05
CGA:   8    -0.575385323921E+03   -0.40226E-04   -0.40202E-04  1728   0.200E-03-0.445E-06
CGA:   9    -0.575385352817E+03   -0.28896E-04   -0.28897E-04  1728   0.951E-04 0.105E-06
CGA:  10    -0.575385365511E+03   -0.12694E-04   -0.12697E-04  1728   0.716E-04 0.196E-06
CGA:  11    -0.575385377093E+03   -0.11583E-04   -0.11582E-04  1728   0.332E-04 0.138E-06
CGA:  12    -0.575385383962E+03   -0.68688E-05   -0.68395E-05  1728   0.209E-04 0.541E-06
   3 F= -.57538538E+03 E0= -.57537802E+03  d E =-.736206E-03  mag=    70.0000
