       N       E                     dE             d eps       ncg     rms          ort
DAV:   1     0.180815026652E+05    0.18082E+05   -0.67379E+05  1536   0.178E+03
DAV:   2     0.157928906390E+04   -0.16502E+05   -0.15867E+05  1536   0.551E+02
DAV:   3    -0.141535638261E+04   -0.29946E+04   -0.28869E+04  1536   0.215E+02
DAV:   4    -0.164375034748E+04   -0.22839E+03   -0.21676E+03  1536   0.628E+01
DAV:   5    -0.165596382497E+04   -0.12213E+02   -0.11422E+02  1536   0.135E+01
SDA:   6    -0.205465214125E+03    0.14505E+04   -0.11422E+02  1536   0.855E+04 0.000E+00
CGA:   7    -0.930680251023E+03   -0.72522E+03   -0.78359E+03  1536   0.749E+04-0.643E+03
CGA:   8    -0.111492980195E+04   -0.18425E+03   -0.27083E+03  1536   0.167E+04-0.153E+04
CGA:   9    -0.116342770041E+04   -0.48498E+02   -0.49355E+02  1536   0.612E+03-0.196E+03
CGA:  10    -0.119240221969E+04   -0.28975E+02   -0.37607E+02  1536   0.124E+04-0.131E+03
CGA:  11    -0.122593763609E+04   -0.33535E+02   -0.50037E+02  1536   0.156E+04-0.136E+03
CGA:  12    -0.123697329178E+04   -0.11036E+02   -0.38213E+02  1536   0.676E+03-0.645E+03
CGA:  13    -0.124920629204E+04   -0.12233E+02   -0.97885E+01  1536   0.206E+03 0.504E+02
CGA:  14    -0.125430532654E+04   -0.50990E+01   -0.70691E+01  1536   0.560E+03-0.107E+03
CGA:  15    -0.125436881587E+04   -0.63489E-01   -0.18793E+02  1536   0.974E+03-0.417E+03
CGA:  16    -0.125680406364E+04   -0.24352E+01   -0.24826E+02  1536   0.120E+04-0.994E+03
CGA:  17    -0.125527801477E+04    0.15260E+01   -0.31304E+02  1536   0.151E+04-0.118E+04
CGA:  18    -0.125547742025E+04   -0.19941E+00   -0.38197E+02  1536   0.161E+04-0.141E+04
CGA:  19    -0.126278284008E+04   -0.73054E+01   -0.36833E+02  1536   0.127E+04-0.139E+04
CGA:  20    -0.126471246904E+04   -0.19296E+01   -0.30893E+02  1536   0.127E+04-0.119E+04
CGA:  21    -0.126759382635E+04   -0.28814E+01   -0.30218E+02  1536   0.116E+04-0.114E+04
CGA:  22    -0.127193178096E+04   -0.43380E+01   -0.26425E+02  1536   0.962E+03-0.100E+04
CGA:  23    -0.127489054819E+04   -0.29588E+01   -0.22058E+02  1536   0.820E+03-0.819E+03
CGA:  24    -0.127993309619E+04   -0.50425E+01   -0.17145E+02  1536   0.514E+03-0.601E+03
CGA:  25    -0.128361893094E+04   -0.36858E+01   -0.10385E+02  1536   0.286E+03-0.334E+03
CGA:  26    -0.128658878802E+04   -0.29699E+01   -0.50938E+01  1536   0.939E+02-0.118E+03
CGA:  27    -0.128947679674E+04   -0.28880E+01   -0.30870E+01  1536   0.657E+02-0.284E+00
CGA:  28    -0.129155593857E+04   -0.20791E+01   -0.25794E+01  1536   0.606E+02-0.625E+01
CGA:  29    -0.129527665388E+04   -0.37207E+01   -0.37582E+01  1536   0.313E+02 0.335E+01
CGA:  30    -0.129645071959E+04   -0.11741E+01   -0.14708E+01  1536   0.181E+02-0.177E+01
CGA:  31    -0.129755168376E+04   -0.11010E+01   -0.11664E+01  1536   0.107E+02 0.137E+01
CGA:  32    -0.129813216599E+04   -0.58048E+00   -0.61200E+00  1536   0.799E+01 0.674E-02
CGA:  33    -0.129887295596E+04   -0.74079E+00   -0.72277E+00  1536   0.588E+01 0.113E+01
CGA:  34    -0.129930865535E+04   -0.43570E+00   -0.44552E+00  1536   0.372E+01 0.170E+00
CGA:  35    -0.129973579387E+04   -0.42714E+00   -0.41433E+00  1536   0.295E+01 0.326E+00
CGA:  36    -0.130000431566E+04   -0.26852E+00   -0.26804E+00  1536   0.190E+01 0.172E+00
CGA:  37    -0.130020851783E+04   -0.20420E+00   -0.20318E+00  1536   0.169E+01 0.319E-01
CGA:  38    -0.130041565527E+04   -0.20714E+00   -0.20309E+00  1536   0.118E+01 0.748E-01
CGA:  39    -0.130052855106E+04   -0.11290E+00   -0.11315E+00  1536   0.864E+00-0.222E-01
CGA:  40    -0.130064165669E+04   -0.11311E+00   -0.11597E+00  1536   0.103E+01-0.472E-01
CGA:  41    -0.130073433110E+04   -0.92674E-01   -0.93001E-01  1536   0.478E+00-0.241E-01
CGA:  42    -0.130077725926E+04   -0.42928E-01   -0.42977E-01  1536   0.416E+00-0.753E-02
CGA:  43    -0.130083879896E+04   -0.61540E-01   -0.62843E-01  1536   0.586E+00-0.190E-01
CGA:  44    -0.130088255615E+04   -0.43757E-01   -0.43561E-01  1536   0.204E+00-0.547E-02
CGA:  45    -0.130090444118E+04   -0.21885E-01   -0.21966E-01  1536   0.311E+00-0.306E-02
CGA:  46    -0.130094909663E+04   -0.44655E-01   -0.46635E-01  1536   0.327E+00-0.290E-01
CGA:  47    -0.130096684945E+04   -0.17753E-01   -0.17622E-01  1536   0.119E+00 0.974E-03
CGA:  48    -0.130098456532E+04   -0.17716E-01   -0.17955E-01  1536   0.265E+00-0.373E-02
CGA:  49    -0.130101163624E+04   -0.27071E-01   -0.27249E-01  1536   0.140E+00-0.989E-02
CGA:  50    -0.130102262668E+04   -0.10990E-01   -0.10810E-01  1536   0.139E+00-0.246E-02
CGA:  51    -0.130103922025E+04   -0.16594E-01   -0.17096E-01  1536   0.143E+00-0.124E-01
CGA:  52    -0.130104745028E+04   -0.82300E-02   -0.82124E-02  1536   0.755E-01 0.648E-03
CGA:  53    -0.130105458687E+04   -0.71366E-02   -0.71375E-02  1536   0.123E+00 0.532E-03
CGA:  54    -0.130106272203E+04   -0.81352E-02   -0.74809E-02  1536   0.996E-01 0.261E-02
CGA:  55    -0.130106902944E+04   -0.63074E-02   -0.62970E-02  1536   0.658E-01 0.246E-03
SDA:  56    -0.130107296298E+04   -0.39335E-02   -0.39814E-02  1536   0.877E-01 0.122E-04
CGA:  57    -0.130107656576E+04   -0.36028E-02   -0.35426E-02  1536   0.667E-01 0.783E-03
CGA:  58    -0.130108510468E+04   -0.85389E-02   -0.85467E-02  1536   0.132E+00-0.237E-03
CGA:  59    -0.130110170539E+04   -0.16601E-01   -0.17283E-01  1536   0.249E+00-0.147E-01
CGA:  60    -0.130111139184E+04   -0.96865E-02   -0.81302E-02  1536   0.875E-01 0.311E-01
CGA:  61    -0.130111549391E+04   -0.41021E-02   -0.40283E-02  1536   0.862E-01 0.901E-03
CGA:  62    -0.130112001304E+04   -0.45191E-02   -0.44605E-02  1536   0.586E-01 0.250E-03
CGA:  63    -0.130112165414E+04   -0.16411E-02   -0.16113E-02  1536   0.190E-01 0.816E-03
CGA:  64    -0.130112230972E+04   -0.65558E-03   -0.65119E-03  1536   0.129E-01 0.142E-03
CGA:  65    -0.130112292781E+04   -0.61809E-03   -0.61842E-03  1536   0.138E-01 0.810E-04
CGA:  66    -0.130112362404E+04   -0.69623E-03   -0.69757E-03  1536   0.176E-01 0.127E-03
CGA:  67    -0.130112437732E+04   -0.75328E-03   -0.75652E-03  1536   0.111E-01 0.194E-03
CGA:  68    -0.130112472031E+04   -0.34299E-03   -0.34489E-03  1536   0.579E-02 0.153E-03
CGA:  69    -0.130112496825E+04   -0.24794E-03   -0.25010E-03  1536   0.665E-02 0.102E-03
CGA:  70    -0.130112538448E+04   -0.41623E-03   -0.41763E-03  1536   0.108E-01 0.176E-03
CGA:  71    -0.130112582716E+04   -0.44268E-03   -0.44007E-03  1536   0.850E-02 0.331E-03
CGA:  72    -0.130112612730E+04   -0.30014E-03   -0.29363E-03  1536   0.510E-02 0.345E-03
CGA:  73    -0.130112628559E+04   -0.15828E-03   -0.15773E-03  1536   0.361E-02 0.128E-03
CGA:  74    -0.130112644952E+04   -0.16393E-03   -0.16407E-03  1536   0.471E-02 0.452E-04
CGA:  75    -0.130112661978E+04   -0.17026E-03   -0.16975E-03  1536   0.389E-02 0.417E-04
CGA:  76    -0.130112673652E+04   -0.11673E-03   -0.11546E-03  1536   0.223E-02 0.222E-04
CGA:  77    -0.130112679914E+04   -0.62620E-04   -0.61581E-04  1536   0.148E-02 0.194E-04
CGA:  78    -0.130112686511E+04   -0.65977E-04   -0.65019E-04  1536   0.209E-02-0.545E-04
CGA:  79    -0.130112695012E+04   -0.85010E-04   -0.83140E-04  1536   0.245E-02-0.103E-03
CGA:  80    -0.130112703355E+04   -0.83423E-04   -0.80426E-04  1536   0.204E-02-0.117E-03
CGA:  81    -0.130112709210E+04   -0.58554E-04   -0.55574E-04  1536   0.127E-02-0.847E-04
CGA:  82    -0.130112712956E+04   -0.37462E-04   -0.35617E-04  1536   0.982E-03-0.610E-04
CGA:  83    -0.130112716779E+04   -0.38227E-04   -0.37095E-04  1536   0.146E-02-0.707E-04
CGA:  84    -0.130112722611E+04   -0.58325E-04   -0.56364E-04  1536   0.189E-02-0.117E-03
CGA:  85    -0.130112726900E+04   -0.42882E-04   -0.38731E-04  1536   0.120E-02-0.593E-05
CGA:  86    -0.130112729667E+04   -0.27675E-04   -0.26065E-04  1536   0.826E-03-0.219E-04
SDA:  87    -0.130112731615E+04   -0.19480E-04   -0.18812E-04  1536   0.675E-03-0.157E-04
CGA:  88    -0.130112736322E+04   -0.47071E-04   -0.46494E-04  1536   0.970E-03 0.276E-04
CGA:  89    -0.130112746913E+04   -0.10591E-03   -0.10104E-03  1536   0.133E-02 0.958E-04
CGA:  90    -0.130112752598E+04   -0.56845E-04   -0.57593E-04  1536   0.442E-03 0.551E-04
CGA:  91    -0.130112755335E+04   -0.27374E-04   -0.27109E-04  1536   0.305E-03 0.347E-04
CGA:  92    -0.130112757896E+04   -0.25611E-04   -0.24715E-04  1536   0.341E-03 0.376E-04
CGA:  93    -0.130112760246E+04   -0.23497E-04   -0.23232E-04  1536   0.154E-03 0.338E-04
CGA:  94    -0.130112760910E+04   -0.66380E-05   -0.67746E-05  1536   0.634E-04 0.958E-05
   1 F= -.13011276E+04 E0= -.13010818E+04  d E =-.130113E+04  mag=    70.0000
       N       E                     dE             d eps       ncg     rms          ort
SDA:   1    -0.130032893985E+04    0.79866E+00    0.00000E+00  1536   0.676E+01 0.000E+00
CGA:   2    -0.130066672450E+04   -0.33778E+00   -0.33773E+00  1536   0.319E+01-0.130E-01
CGA:   3    -0.130088156114E+04   -0.21484E+00   -0.21485E+00  1536   0.293E+01-0.485E-02
CGA:   4    -0.130100184115E+04   -0.12028E+00   -0.11977E+00  1536   0.847E+00-0.152E-01
CGA:   5    -0.130103912188E+04   -0.37281E-01   -0.37310E-01  1536   0.629E+00-0.107E-03
CGA:   6    -0.130108644465E+04   -0.47323E-01   -0.47299E-01  1536   0.580E+00 0.957E-03
CGA:   7    -0.130111986146E+04   -0.33417E-01   -0.33417E-01  1536   0.193E+00 0.477E-03
CGA:   8    -0.130112748386E+04   -0.76224E-02   -0.76205E-02  1536   0.962E-01 0.284E-03
CGA:   9    -0.130113352960E+04   -0.60457E-02   -0.60431E-02  1536   0.709E-01 0.248E-03
CGA:  10    -0.130113755242E+04   -0.40228E-02   -0.40224E-02  1536   0.314E-01 0.110E-03
CGA:  11    -0.130113907111E+04   -0.15187E-02   -0.15195E-02  1536   0.153E-01 0.624E-04
CGA:  12    -0.130114035975E+04   -0.12886E-02   -0.12871E-02  1536   0.263E-01 0.445E-04
CGA:  13    -0.130114154774E+04   -0.11880E-02   -0.11892E-02  1536   0.956E-02 0.663E-04
CGA:  14    -0.130114202472E+04   -0.47698E-03   -0.47710E-03  1536   0.353E-02 0.286E-04
CGA:  15    -0.130114238635E+04   -0.36163E-03   -0.35890E-03  1536   0.586E-02 0.539E-04
CGA:  16    -0.130114284066E+04   -0.45431E-03   -0.45295E-03  1536   0.416E-02 0.649E-04
CGA:  17    -0.130114299057E+04   -0.14991E-03   -0.15036E-03  1536   0.149E-02 0.123E-04
CGA:  18    -0.130114308347E+04   -0.92903E-04   -0.92932E-04  1536   0.167E-02-0.975E-05
CGA:  19    -0.130114321688E+04   -0.13341E-03   -0.13412E-03  1536   0.179E-02-0.334E-04
CGA:  20    -0.130114331352E+04   -0.96640E-04   -0.96521E-04  1536   0.545E-03-0.426E-04
CGA:  21    -0.130114334047E+04   -0.26956E-04   -0.26772E-04  1536   0.482E-03-0.271E-04
CGA:  22    -0.130114337885E+04   -0.38373E-04   -0.40023E-04  1536   0.750E-03-0.576E-04
CGA:  23    -0.130114342111E+04   -0.42266E-04   -0.42638E-04  1536   0.389E-03-0.689E-04
CGA:  24    -0.130114343630E+04   -0.15193E-04   -0.14842E-04  1536   0.162E-03-0.217E-04
CGA:  25    -0.130114344618E+04   -0.98747E-05   -0.99199E-05  1536   0.259E-03-0.838E-05
CGA:  26    -0.130114346771E+04   -0.21531E-04   -0.21727E-04  1536   0.146E-03-0.744E-05
CGA:  27    -0.130114347629E+04   -0.85780E-05   -0.85771E-05  1536   0.653E-04 0.239E-05
   2 F= -.13011435E+04 E0= -.13010974E+04  d E =-.158672E-01  mag=    70.0000
       N       E                     dE             d eps       ncg     rms          ort
SDA:   1    -0.130110010512E+04    0.43363E-01    0.00000E+00  1536   0.498E+00 0.000E+00
CGA:   2    -0.130111732794E+04   -0.17223E-01   -0.17234E-01  1536   0.205E+00 0.180E-02
CGA:   3    -0.130112804916E+04   -0.10721E-01   -0.10743E-01  1536   0.151E+00 0.276E-02
CGA:   4    -0.130113644682E+04   -0.83977E-02   -0.84082E-02  1536   0.738E-01 0.262E-02
CGA:   5    -0.130113918477E+04   -0.27379E-02   -0.27557E-02  1536   0.251E-01 0.750E-03
CGA:   6    -0.130114173512E+04   -0.25504E-02   -0.25483E-02  1536   0.299E-01 0.500E-04
CGA:   7    -0.130114364015E+04   -0.19050E-02   -0.19059E-02  1536   0.156E-01-0.214E-03
CGA:   8    -0.130114417983E+04   -0.53968E-03   -0.53749E-03  1536   0.503E-02-0.823E-04
CGA:   9    -0.130114447959E+04   -0.29975E-03   -0.29980E-03  1536   0.367E-02-0.419E-04
CGA:  10    -0.130114471837E+04   -0.23879E-03   -0.23894E-03  1536   0.222E-02-0.217E-04
CGA:  11    -0.130114480637E+04   -0.88001E-04   -0.87872E-04  1536   0.104E-02-0.804E-05
CGA:  12    -0.130114486234E+04   -0.55970E-04   -0.55924E-04  1536   0.875E-03-0.105E-04
CGA:  13    -0.130114494414E+04   -0.81796E-04   -0.82818E-04  1536   0.742E-03-0.273E-04
CGA:  14    -0.130114497491E+04   -0.30768E-04   -0.30551E-04  1536   0.215E-03-0.126E-04
CGA:  15    -0.130114498844E+04   -0.13530E-04   -0.13569E-04  1536   0.252E-03-0.734E-05
CGA:  16    -0.130114501288E+04   -0.24444E-04   -0.25108E-04  1536   0.386E-03-0.153E-04
CGA:  17    -0.130114502529E+04   -0.12404E-04   -0.12227E-04  1536   0.898E-04-0.656E-05
CGA:  18    -0.130114502999E+04   -0.47023E-05   -0.47024E-05  1536   0.575E-04-0.869E-08
   3 F= -.13011450E+04 E0= -.13010990E+04  d E =-.174209E-01  mag=    70.0000
       N       E                     dE             d eps       ncg     rms          ort
SDA:   1    -0.130063188643E+04    0.51314E+00    0.00000E+00  1536   0.464E+01 0.000E+00
CGA:   2    -0.130081305160E+04   -0.18117E+00   -0.18071E+00  1536   0.160E+01 0.282E-02
CGA:   3    -0.130091698259E+04   -0.10393E+00   -0.10392E+00  1536   0.187E+01 0.220E-02
CGA:   4    -0.130104357830E+04   -0.12660E+00   -0.12661E+00  1536   0.908E+00-0.717E-03
CGA:   5    -0.130108300594E+04   -0.39428E-01   -0.39399E-01  1536   0.527E+00 0.204E-03
CGA:   6    -0.130111889636E+04   -0.35890E-01   -0.35892E-01  1536   0.384E+00-0.309E-03
CGA:   7    -0.130113957848E+04   -0.20682E-01   -0.20670E-01  1536   0.161E+00-0.946E-03
CGA:   8    -0.130114450863E+04   -0.49302E-02   -0.49398E-02  1536   0.525E-01-0.396E-03
CGA:   9    -0.130114820699E+04   -0.36984E-02   -0.37011E-02  1536   0.444E-01-0.214E-03
CGA:  10    -0.130115151101E+04   -0.33040E-02   -0.33060E-02  1536   0.285E-01-0.146E-03
CGA:  11    -0.130115275536E+04   -0.12443E-02   -0.12427E-02  1536   0.684E-02-0.799E-04
CGA:  12    -0.130115320028E+04   -0.44492E-03   -0.44508E-03  1536   0.950E-02-0.311E-04
CGA:  13    -0.130115380258E+04   -0.60230E-03   -0.60250E-03  1536   0.783E-02-0.489E-04
CGA:  14    -0.130115420957E+04   -0.40699E-03   -0.40677E-03  1536   0.265E-02-0.270E-04
CGA:  15    -0.130115433284E+04   -0.12327E-03   -0.12325E-03  1536   0.212E-02-0.178E-05
CGA:  16    -0.130115451393E+04   -0.18109E-03   -0.18090E-03  1536   0.267E-02 0.707E-05
CGA:  17    -0.130115465721E+04   -0.14328E-03   -0.14333E-03  1536   0.103E-02 0.829E-05
CGA:  18    -0.130115470914E+04   -0.51938E-04   -0.51986E-04  1536   0.658E-03 0.492E-05
CGA:  19    -0.130115476489E+04   -0.55747E-04   -0.55519E-04  1536   0.841E-03 0.928E-05
CGA:  20    -0.130115481674E+04   -0.51852E-04   -0.51851E-04  1536   0.583E-03 0.125E-04
CGA:  21    -0.130115483781E+04   -0.21067E-04   -0.21251E-04  1536   0.231E-03 0.759E-05
CGA:  22    -0.130115485907E+04   -0.21255E-04   -0.20887E-04  1536   0.252E-03 0.123E-04
CGA:  23    -0.130115488090E+04   -0.21832E-04   -0.21575E-04  1536   0.213E-03 0.126E-04
CGA:  24    -0.130115489077E+04   -0.98721E-05   -0.99351E-05  1536   0.966E-04 0.348E-05
   4 F= -.13011549E+04 E0= -.13011088E+04  d E =-.986078E-02  mag=    70.0000
       N       E                     dE             d eps       ncg     rms          ort
SDA:   1    -0.130110146489E+04    0.53416E-01    0.00000E+00  1536   0.730E+00 0.000E+00
CGA:   2    -0.130112045072E+04   -0.18986E-01   -0.18847E-01  1536   0.186E+00 0.366E-02
CGA:   3    -0.130113030118E+04   -0.98505E-02   -0.98546E-02  1536   0.144E+00 0.398E-03
CGA:   4    -0.130114238253E+04   -0.12081E-01   -0.12074E-01  1536   0.136E+00 0.372E-03
CGA:   5    -0.130114791277E+04   -0.55302E-02   -0.55348E-02  1536   0.511E-01 0.165E-03
CGA:   6    -0.130115086292E+04   -0.29501E-02   -0.29500E-02  1536   0.422E-01-0.736E-04
CGA:   7    -0.130115346786E+04   -0.26049E-02   -0.26054E-02  1536   0.219E-01-0.187E-03
CGA:   8    -0.130115443672E+04   -0.96886E-03   -0.96754E-03  1536   0.588E-02-0.994E-04
CGA:   9    -0.130115473794E+04   -0.30122E-03   -0.30090E-03  1536   0.382E-02-0.436E-04
CGA:  10    -0.130115503606E+04   -0.29812E-03   -0.29921E-03  1536   0.445E-02-0.527E-04
CGA:  11    -0.130115520942E+04   -0.17336E-03   -0.17275E-03  1536   0.165E-02-0.330E-04
CGA:  12    -0.130115527771E+04   -0.68293E-04   -0.68009E-04  1536   0.489E-03-0.166E-04
CGA:  13    -0.130115534881E+04   -0.71095E-04   -0.73347E-04  1536   0.104E-02-0.240E-04
CGA:  14    -0.130115539213E+04   -0.43323E-04   -0.43089E-04  1536   0.430E-03-0.123E-04
CGA:  15    -0.130115541123E+04   -0.19099E-04   -0.19058E-04  1536   0.185E-03-0.248E-05
CGA:  16    -0.130115543008E+04   -0.18852E-04   -0.18693E-04  1536   0.326E-03 0.386E-05
CGA:  17    -0.130115544805E+04   -0.17971E-04   -0.18015E-04  1536   0.151E-03 0.508E-05
CGA:  18    -0.130115545500E+04   -0.69446E-05   -0.69902E-05  1536   0.990E-04 0.272E-05
   5 F= -.13011555E+04 E0= -.13011093E+04  d E =-.104250E-01  mag=    70.0000
       N       E                     dE             d eps       ncg     rms          ort
SDA:   1    -0.130089424863E+04    0.26120E+00    0.00000E+00  1536   0.141E+01 0.000E+00
CGA:   2    -0.130096377955E+04   -0.69531E-01   -0.69695E-01  1536   0.160E+01 0.377E-02
CGA:   3    -0.130105403884E+04   -0.90259E-01   -0.90218E-01  1536   0.684E+00-0.370E-02
CGA:   4    -0.130108789043E+04   -0.33852E-01   -0.33876E-01  1536   0.429E+00 0.674E-03
CGA:   5    -0.130111795878E+04   -0.30068E-01   -0.30077E-01  1536   0.504E+00-0.555E-03
CGA:   6    -0.130114532573E+04   -0.27367E-01   -0.27369E-01  1536   0.153E+00 0.655E-04
CGA:   7    -0.130115083947E+04   -0.55137E-02   -0.55095E-02  1536   0.500E-01 0.732E-06
CGA:   8    -0.130115373066E+04   -0.28912E-02   -0.28912E-02  1536   0.373E-01-0.365E-05
CGA:   9    -0.130115635732E+04   -0.26267E-02   -0.26271E-02  1536   0.302E-01-0.384E-04
CGA:  10    -0.130115751401E+04   -0.11567E-02   -0.11577E-02  1536   0.892E-02-0.243E-04
CGA:  11    -0.130115784690E+04   -0.33289E-03   -0.33259E-03  1536   0.415E-02-0.807E-05
CGA:  12    -0.130115832397E+04   -0.47707E-03   -0.47828E-03  1536   0.486E-02-0.207E-04
CGA:  13    -0.130115856501E+04   -0.24104E-03   -0.24093E-03  1536   0.166E-02-0.110E-04
CGA:  14    -0.130115863924E+04   -0.74231E-04   -0.74181E-04  1536   0.124E-02-0.414E-05
CGA:  15    -0.130115873619E+04   -0.96944E-04   -0.97077E-04  1536   0.171E-02-0.674E-05
CGA:  16    -0.130115884178E+04   -0.10559E-03   -0.10560E-03  1536   0.922E-03-0.481E-05
CGA:  17    -0.130115887824E+04   -0.36467E-04   -0.36478E-04  1536   0.372E-03 0.584E-06
CGA:  18    -0.130115891131E+04   -0.33065E-04   -0.32902E-04  1536   0.658E-03 0.546E-05
CGA:  19    -0.130115895655E+04   -0.45239E-04   -0.45168E-04  1536   0.443E-03 0.996E-05
CGA:  20    -0.130115897587E+04   -0.19325E-04   -0.19412E-04  1536   0.157E-03 0.483E-05
CGA:  21    -0.130115898905E+04   -0.13183E-04   -0.13116E-04  1536   0.234E-03 0.293E-05
CGA:  22    -0.130115900337E+04   -0.14319E-04   -0.14320E-04  1536   0.221E-03 0.214E-05
CGA:  23    -0.130115901399E+04   -0.10619E-04   -0.10628E-04  1536   0.680E-04 0.663E-06
CGA:  24    -0.130115901810E+04   -0.41054E-05   -0.41054E-05  1536   0.674E-04-0.760E-06
   6 F= -.13011590E+04 E0= -.13011127E+04  d E =-.356310E-02  mag=    70.0000
       N       E                     dE             d eps       ncg     rms          ort
SDA:   1    -0.130110098973E+04    0.58024E-01    0.00000E+00  1536   0.366E+00 0.000E+00
CGA:   2    -0.130111530015E+04   -0.14310E-01   -0.14268E-01  1536   0.304E+00 0.219E-03
CGA:   3    -0.130113495759E+04   -0.19657E-01   -0.19656E-01  1536   0.178E+00 0.377E-03
CGA:   4    -0.130114390382E+04   -0.89462E-02   -0.89457E-02  1536   0.865E-01-0.532E-06
CGA:   5    -0.130114957904E+04   -0.56752E-02   -0.56749E-02  1536   0.110E+00 0.401E-04
CGA:   6    -0.130115598348E+04   -0.64044E-02   -0.64039E-02  1536   0.393E-01-0.806E-04
CGA:   7    -0.130115756936E+04   -0.15859E-02   -0.15857E-02  1536   0.118E-01-0.124E-04
CGA:   8    -0.130115816564E+04   -0.59628E-03   -0.59611E-03  1536   0.720E-02-0.127E-04
CGA:   9    -0.130115873430E+04   -0.56866E-03   -0.56899E-03  1536   0.745E-02-0.176E-04
CGA:  10    -0.130115901762E+04   -0.28331E-03   -0.28299E-03  1536   0.201E-02-0.101E-04
CGA:  11    -0.130115909477E+04   -0.77154E-04   -0.77086E-04  1536   0.982E-03-0.414E-05
CGA:  12    -0.130115917402E+04   -0.79251E-04   -0.79413E-04  1536   0.979E-03-0.724E-05
CGA:  13    -0.130115925112E+04   -0.77099E-04   -0.77253E-04  1536   0.431E-03-0.781E-05
CGA:  14    -0.130115926588E+04   -0.14762E-04   -0.14721E-04  1536   0.225E-03-0.157E-05
CGA:  15    -0.130115929072E+04   -0.24834E-04   -0.24999E-04  1536   0.396E-03-0.316E-05
CGA:  16    -0.130115931189E+04   -0.21173E-04   -0.21159E-04  1536   0.220E-03-0.195E-05
CGA:  17    -0.130115932070E+04   -0.88119E-05   -0.88175E-05  1536   0.904E-04 0.207E-06
   7 F= -.13011593E+04 E0= -.13011129E+04  d E =-.386570E-02  mag=    70.0000
       N       E                     dE             d eps       ncg     rms          ort
SDA:   1    -0.130091027628E+04    0.24904E+00    0.00000E+00  1536   0.133E+01 0.000E+00
CGA:   2    -0.130097291719E+04   -0.62641E-01   -0.62540E-01  1536   0.147E+01-0.230E-02
CGA:   3    -0.130106982943E+04   -0.96912E-01   -0.96905E-01  1536   0.601E+00-0.453E-03
CGA:   4    -0.130109640301E+04   -0.26574E-01   -0.26480E-01  1536   0.413E+00-0.135E-02
CGA:   5    -0.130112569381E+04   -0.29291E-01   -0.29296E-01  1536   0.428E+00-0.357E-03
CGA:   6    -0.130114780844E+04   -0.22115E-01   -0.22118E-01  1536   0.162E+00 0.151E-03
CGA:   7    -0.130115380089E+04   -0.59924E-02   -0.59918E-02  1536   0.495E-01 0.152E-03
CGA:   8    -0.130115679190E+04   -0.29910E-02   -0.29907E-02  1536   0.357E-01 0.195E-03
CGA:   9    -0.130115965910E+04   -0.28672E-02   -0.28603E-02  1536   0.228E-01 0.319E-03
CGA:  10    -0.130116055152E+04   -0.89241E-03   -0.89359E-03  1536   0.672E-02 0.934E-04
CGA:  11    -0.130116084145E+04   -0.28993E-03   -0.29037E-03  1536   0.510E-02 0.238E-04
CGA:  12    -0.130116123626E+04   -0.39481E-03   -0.39448E-03  1536   0.485E-02 0.176E-04
CGA:  13    -0.130116150119E+04   -0.26493E-03   -0.26495E-03  1536   0.150E-02 0.307E-05
CGA:  14    -0.130116157991E+04   -0.78716E-04   -0.78673E-04  1536   0.128E-02-0.650E-05
CGA:  15    -0.130116167878E+04   -0.98869E-04   -0.99142E-04  1536   0.181E-02-0.146E-04
CGA:  16    -0.130116179041E+04   -0.11163E-03   -0.11168E-03  1536   0.663E-03-0.165E-04
CGA:  17    -0.130116182424E+04   -0.33828E-04   -0.33816E-04  1536   0.568E-03-0.164E-05
CGA:  18    -0.130116186080E+04   -0.36566E-04   -0.36557E-04  1536   0.629E-03 0.161E-05
CGA:  19    -0.130116190727E+04   -0.46471E-04   -0.46416E-04  1536   0.548E-03 0.380E-05
CGA:  20    -0.130116193078E+04   -0.23505E-04   -0.23519E-04  1536   0.207E-03 0.747E-06
CGA:  21    -0.130116194784E+04   -0.17060E-04   -0.17127E-04  1536   0.226E-03-0.302E-05
CGA:  22    -0.130116196849E+04   -0.20653E-04   -0.20858E-04  1536   0.223E-03-0.634E-05
CGA:  23    -0.130116197566E+04   -0.71705E-05   -0.71112E-05  1536   0.709E-04-0.219E-05
   8 F= -.13011620E+04 E0= -.13011155E+04  d E =-.265496E-02  mag=    70.0000
       N       E                     dE             d eps       ncg     rms          ort
SDA:   1    -0.130110405052E+04    0.57918E-01    0.00000E+00  1536   0.381E+00 0.000E+00
CGA:   2    -0.130111812532E+04   -0.14075E-01   -0.14040E-01  1536   0.279E+00-0.312E-03
CGA:   3    -0.130113860432E+04   -0.20479E-01   -0.20486E-01  1536   0.219E+00-0.773E-03
CGA:   4    -0.130114720175E+04   -0.85974E-02   -0.85727E-02  1536   0.780E-01-0.555E-03
CGA:   5    -0.130115345886E+04   -0.62571E-02   -0.62605E-02  1536   0.924E-01-0.163E-03
CGA:   6    -0.130115880310E+04   -0.53442E-02   -0.53442E-02  1536   0.476E-01 0.139E-05
CGA:   7    -0.130116064741E+04   -0.18443E-02   -0.18465E-02  1536   0.109E-01 0.697E-04
CGA:   8    -0.130116119249E+04   -0.54508E-03   -0.54569E-03  1536   0.912E-02 0.688E-04
CGA:   9    -0.130116181868E+04   -0.62620E-03   -0.62507E-03  1536   0.548E-02 0.120E-03
CGA:  10    -0.130116210345E+04   -0.28477E-03   -0.28523E-03  1536   0.225E-02 0.602E-04
CGA:  11    -0.130116217673E+04   -0.73276E-04   -0.73685E-04  1536   0.891E-03 0.140E-04
CGA:  12    -0.130116225810E+04   -0.81370E-04   -0.81052E-04  1536   0.114E-02 0.976E-05
CGA:  13    -0.130116232765E+04   -0.69548E-04   -0.69542E-04  1536   0.398E-03 0.409E-05
CGA:  14    -0.130116234807E+04   -0.20421E-04   -0.20400E-04  1536   0.254E-03-0.249E-05
CGA:  15    -0.130116236910E+04   -0.21034E-04   -0.21187E-04  1536   0.482E-03-0.619E-05
CGA:  16    -0.130116239445E+04   -0.25350E-04   -0.25302E-04  1536   0.213E-03-0.773E-05
CGA:  17    -0.130116240499E+04   -0.10542E-04   -0.10522E-04  1536   0.112E-03-0.213E-05
CGA:  18    -0.130116241315E+04   -0.81540E-05   -0.81548E-05  1536   0.160E-03-0.548E-07
CGA:  19    -0.130116242508E+04   -0.11930E-04   -0.11923E-04  1536   0.125E-03 0.495E-06
CGA:  20    -0.130116243115E+04   -0.60726E-05   -0.60681E-05  1536   0.583E-04-0.351E-06
   9 F= -.13011624E+04 E0= -.13011159E+04  d E =-.311045E-02  mag=    70.0000
       N       E                     dE             d eps       ncg     rms          ort
SDA:   1    -0.130095270832E+04    0.20972E+00    0.00000E+00  1536   0.932E+00 0.000E+00
CGA:   2    -0.130103315258E+04   -0.80444E-01   -0.80363E-01  1536   0.128E+01 0.296E-02
CGA:   3    -0.130108672172E+04   -0.53569E-01   -0.53503E-01  1536   0.427E+00 0.142E-02
CGA:   4    -0.130111049325E+04   -0.23772E-01   -0.23775E-01  1536   0.385E+00 0.602E-03
CGA:   5    -0.130113592919E+04   -0.25436E-01   -0.25442E-01  1536   0.380E+00-0.506E-03
CGA:   6    -0.130115401007E+04   -0.18081E-01   -0.18092E-01  1536   0.924E-01 0.117E-03
CGA:   7    -0.130115770633E+04   -0.36963E-02   -0.36905E-02  1536   0.384E-01-0.128E-03
CGA:   8    -0.130115988819E+04   -0.21819E-02   -0.21816E-02  1536   0.361E-01-0.152E-03
CGA:   9    -0.130116223072E+04   -0.23425E-02   -0.23444E-02  1536   0.116E-01-0.275E-03
CGA:  10    -0.130116286954E+04   -0.63882E-03   -0.63852E-03  1536   0.475E-02-0.810E-04
CGA:  11    -0.130116309431E+04   -0.22477E-03   -0.22442E-03  1536   0.441E-02-0.294E-04
CGA:  12    -0.130116340996E+04   -0.31565E-03   -0.31611E-03  1536   0.370E-02-0.341E-04
CGA:  13    -0.130116357557E+04   -0.16561E-03   -0.16538E-03  1536   0.123E-02-0.131E-04
CGA:  14    -0.130116363667E+04   -0.61107E-04   -0.61107E-04  1536   0.864E-03 0.156E-06
CGA:  15    -0.130116374000E+04   -0.10333E-03   -0.10280E-03  1536   0.119E-02 0.868E-05
CGA:  16    -0.130116379125E+04   -0.51246E-04   -0.51335E-04  1536   0.513E-03 0.484E-05
CGA:  17    -0.130116381617E+04   -0.24927E-04   -0.24958E-04  1536   0.321E-03 0.272E-05
CGA:  18    -0.130116384812E+04   -0.31944E-04   -0.31757E-04  1536   0.552E-03 0.471E-05
CGA:  19    -0.130116387662E+04   -0.28505E-04   -0.28565E-04  1536   0.241E-03 0.583E-05
CGA:  20    -0.130116388726E+04   -0.10638E-04   -0.10703E-04  1536   0.159E-03 0.376E-05
CGA:  21    -0.130116389945E+04   -0.12191E-04   -0.12099E-04  1536   0.142E-03 0.617E-05
CGA:  22    -0.130116391338E+04   -0.13931E-04   -0.13696E-04  1536   0.826E-04 0.737E-05
CGA:  23    -0.130116391732E+04   -0.39342E-05   -0.39500E-05  1536   0.568E-04 0.915E-06
  10 F= -.13011639E+04 E0= -.13011175E+04  d E =-.148617E-02  mag=    70.0000
