       N       E                     dE             d eps       ncg     rms          ort
DAV:   1     0.857891138522E+04    0.85789E+04   -0.35761E+05  1728   0.172E+03
DAV:   2     0.609588247487E+03   -0.79693E+04   -0.74345E+04  1728   0.497E+02
DAV:   3    -0.611098828847E+03   -0.12207E+04   -0.11693E+04  1728   0.191E+02
DAV:   4    -0.694540094945E+03   -0.83441E+02   -0.80547E+02  1728   0.466E+01
DAV:   5    -0.699672848723E+03   -0.51328E+01   -0.50757E+01  1728   0.924E+00
SDA:   6    -0.139952870464E+03    0.55972E+03   -0.50757E+01  1728   0.430E+04 0.000E+00
CGA:   7    -0.505311785813E+03   -0.36536E+03   -0.48748E+03  1728   0.295E+03-0.111E+01
CGA:   8    -0.544043005476E+03   -0.38731E+02   -0.30947E+02  1728   0.133E+03 0.213E+02
CGA:   9    -0.556227367634E+03   -0.12184E+02   -0.15052E+02  1728   0.516E+02-0.213E+01
CGA:  10    -0.565277951804E+03   -0.90506E+01   -0.89514E+01  1728   0.549E+02-0.435E+01
CGA:  11    -0.570540593891E+03   -0.52626E+01   -0.56723E+01  1728   0.145E+02 0.720E-01
CGA:  12    -0.573050056861E+03   -0.25095E+01   -0.25119E+01  1728   0.701E+01 0.102E+00
CGA:  13    -0.574101985079E+03   -0.10519E+01   -0.10500E+01  1728   0.206E+01-0.128E-01
CGA:  14    -0.574469608521E+03   -0.36762E+00   -0.36767E+00  1728   0.841E+00 0.164E-01
CGA:  15    -0.574627808962E+03   -0.15820E+00   -0.15822E+00  1728   0.373E+00-0.207E-02
CGA:  16    -0.574710216976E+03   -0.82408E-01   -0.82486E-01  1728   0.189E+00-0.161E-02
CGA:  17    -0.574742738153E+03   -0.32521E-01   -0.32525E-01  1728   0.110E+00-0.111E-03
CGA:  18    -0.574768605692E+03   -0.25868E-01   -0.25926E-01  1728   0.575E-01-0.101E-02
CGA:  19    -0.574780268536E+03   -0.11663E-01   -0.11672E-01  1728   0.383E-01-0.419E-03
CGA:  20    -0.574788859912E+03   -0.85914E-02   -0.85913E-02  1728   0.241E-01 0.240E-04
CGA:  21    -0.574793265361E+03   -0.44054E-02   -0.44053E-02  1728   0.154E-01 0.104E-05
CGA:  22    -0.574796816790E+03   -0.35514E-02   -0.35527E-02  1728   0.780E-02-0.286E-04
CGA:  23    -0.574798387681E+03   -0.15709E-02   -0.15710E-02  1728   0.450E-02-0.141E-04
CGA:  24    -0.574799232779E+03   -0.84510E-03   -0.84512E-03  1728   0.222E-02 0.953E-05
CGA:  25    -0.574799670139E+03   -0.43736E-03   -0.43723E-03  1728   0.109E-02 0.201E-04
CGA:  26    -0.574799887043E+03   -0.21690E-03   -0.21691E-03  1728   0.547E-03-0.178E-06
CGA:  27    -0.574800007655E+03   -0.12061E-03   -0.12123E-03  1728   0.274E-03-0.200E-04
CGA:  28    -0.574800066634E+03   -0.58979E-04   -0.59538E-04  1728   0.178E-03-0.167E-04
CGA:  29    -0.574800100692E+03   -0.34058E-04   -0.34067E-04  1728   0.107E-03-0.937E-06
CGA:  30    -0.574800121674E+03   -0.20983E-04   -0.20951E-04  1728   0.513E-04 0.105E-04
CGA:  31    -0.574800133534E+03   -0.11860E-04   -0.11739E-04  1728   0.356E-04 0.894E-05
CGA:  32    -0.574800142386E+03   -0.88519E-05   -0.87798E-05  1728   0.211E-04 0.499E-05
   1 F= -.57480014E+03 E0= -.57480001E+03  d E =-.263575E-03  mag=    70.0000
