 vasp.6.4.2 20Jul23 (build Nov 12 2024 03:35:31) complex                        
  
 executed on             LinuxIFC date 2025.10.03  18:31:19
 running  128 mpi-ranks, on    1 nodes
 distrk:  each k-point on  128 cores,    1 groups
 distr:  one band on NCORE=  16 cores,    8 groups


--------------------------------------------------------------------------------------------------------


 INCAR:
   ALGO = All
   EDIFF = 1E-5
   EDIFFG = -0.03
   ENCUT = 520
   IBRION = 2
   ICHARG = 1
   ISIF = 2
   ISYM = 0
   ISPIN = 2
   LREAL = Auto
   NELMIN = 6
   NELM = 100
   NSW = 199
   PREC = Accurate
   ISMEAR = 0
   SIGMA = 0.05
   MAGMOM = 11*0.06  16*4.5   8*0.06  48*0.06
   LWAVE = False
   LORBIT = 11
   NWRITE = 1
   LPLANE = True
   NCORE = 16
   NSIM = 4

 POTCAR:    PAW_PBE Ca_sv 06Sep2000               
 POTCAR:    PAW_PBE Mn_pv 02Aug2007               
 POTCAR:    PAW_PBE Te 08Apr2002                  
 POTCAR:    PAW_PBE O 08Apr2002                   
 POTCAR:    PAW_PBE Ca_sv 06Sep2000               
  local pseudopotential read in
  partial core-charges read in
  partial kinetic energy density read in
  atomic valenz-charges read in
  non local Contribution for L=           0  read in
    real space projection operators read in
  non local Contribution for L=           0  read in
    real space projection operators read in
  non local Contribution for L=           1  read in
    real space projection operators read in
  non local Contribution for L=           1  read in
    real space projection operators read in
  non local Contribution for L=           2  read in
    real space projection operators read in
  non local Contribution for L=           2  read in
    real space projection operators read in
    PAW grid and wavefunctions read in
 
   number of l-projection  operators is LMAX  =           6
   number of lm-projection operators is LMMAX =          18
 
 POTCAR:    PAW_PBE Mn_pv 02Aug2007               
  local pseudopotential read in
  partial core-charges read in
  partial kinetic energy density read in
  atomic valenz-charges read in
  non local Contribution for L=           1  read in
    real space projection operators read in
  non local Contribution for L=           1  read in
    real space projection operators read in
  non local Contribution for L=           2  read in
    real space projection operators read in
  non local Contribution for L=           2  read in
    real space projection operators read in
  non local Contribution for L=           0  read in
    real space projection operators read in
  non local Contribution for L=           0  read in
    real space projection operators read in
    PAW grid and wavefunctions read in
 
   number of l-projection  operators is LMAX  =           6
   number of lm-projection operators is LMMAX =          18
 
 POTCAR:    PAW_PBE Te 08Apr2002                  
  local pseudopotential read in
  partial core-charges read in
  partial kinetic energy density read in
  atomic valenz-charges read in
  non local Contribution for L=           0  read in
    real space projection operators read in
  non local Contribution for L=           0  read in
    real space projection operators read in
  non local Contribution for L=           1  read in
    real space projection operators read in
  non local Contribution for L=           1  read in
    real space projection operators read in
  non local Contribution for L=           2  read in
    real space projection operators read in
    PAW grid and wavefunctions read in
 
   number of l-projection  operators is LMAX  =           5
   number of lm-projection operators is LMMAX =          13
 
 POTCAR:    PAW_PBE O 08Apr2002                   
  local pseudopotential read in
  partial core-charges read in
  partial kinetic energy density read in
  kinetic energy density of atom read in
  atomic valenz-charges read in
  non local Contribution for L=           0  read in
    real space projection operators read in
  non local Contribution for L=           0  read in
    real space projection operators read in
  non local Contribution for L=           1  read in
    real space projection operators read in
  non local Contribution for L=           1  read in
    real space projection operators read in
    PAW grid and wavefunctions read in
 
   number of l-projection  operators is LMAX  =           4
   number of lm-projection operators is LMMAX =           8
 
 Optimization of the real space projectors (new method)

 maximal supplied QI-value         = 16.25
 optimisation between [QCUT,QGAM] = [ 11.54, 23.24] = [ 37.28,151.24] Ry 
 Optimized for a Real-space Cutoff    1.58 Angstroem

   l    n(q)    QCUT    max X(q) W(low)/X(q) W(high)/X(q)  e(spline) 
   0     11    11.539    11.817    0.25E-04    0.22E-05    0.26E-07
   0     11    11.539     8.461    0.39E-04    0.49E-05    0.55E-07
   1     11    11.539     3.957    0.21E-05    0.44E-05    0.32E-07
   1     11    11.539     4.314    0.56E-04    0.44E-04    0.19E-06
   2     10    11.539    14.565    0.25E-03    0.21E-04    0.75E-06
   2     10    11.539    14.552    0.23E-03    0.22E-04    0.72E-06
 Optimization of the real space projectors (new method)

 maximal supplied QI-value         = 16.25
 optimisation between [QCUT,QGAM] = [ 11.54, 23.24] = [ 37.28,151.24] Ry 
 Optimized for a Real-space Cutoff    1.45 Angstroem

   l    n(q)    QCUT    max X(q) W(low)/X(q) W(high)/X(q)  e(spline) 
   1     10    11.539     3.658    0.56E-04    0.12E-03    0.13E-06
   1     10    11.539     5.612    0.11E-03    0.23E-03    0.24E-06
   2      9    11.539    55.373    0.45E-04    0.92E-04    0.22E-06
   2      9    11.539    50.863    0.47E-04    0.95E-04    0.22E-06
   0     10    11.539    79.536    0.46E-04    0.27E-04    0.11E-06
   0     10    11.539    38.668    0.38E-04    0.25E-04    0.10E-06
 Optimization of the real space projectors (new method)

 maximal supplied QI-value         = 16.25
 optimisation between [QCUT,QGAM] = [ 11.54, 23.24] = [ 37.28,151.24] Ry 
 Optimized for a Real-space Cutoff    1.36 Angstroem

   l    n(q)    QCUT    max X(q) W(low)/X(q) W(high)/X(q)  e(spline) 
   0      9    11.539   224.858    0.53E-04    0.69E-04    0.12E-06
   0      9    11.539   205.313    0.53E-04    0.69E-04    0.12E-06
   1      9    11.539   119.695    0.25E-03    0.13E-04    0.15E-06
   1      9    11.539    84.282    0.24E-03    0.13E-04    0.15E-06
   2      9    11.539     5.599    0.30E-04    0.97E-04    0.54E-07
 Optimization of the real space projectors (new method)

 maximal supplied QI-value         = 24.76
 optimisation between [QCUT,QGAM] = [ 11.64, 23.27] = [ 37.91,151.63] Ry 
 Optimized for a Real-space Cutoff    1.14 Angstroem

   l    n(q)    QCUT    max X(q) W(low)/X(q) W(high)/X(q)  e(spline) 
   0      8    11.635    20.381    0.10E-03    0.33E-03    0.24E-06
   0      8    11.635    15.268    0.11E-03    0.35E-03    0.26E-06
   1      7    11.635     5.964    0.24E-03    0.31E-03    0.30E-06
   1      7    11.635     5.382    0.22E-03    0.25E-03    0.26E-06
  PAW_PBE Ca_sv 06Sep2000               :
 energy of atom  1       EATOM=-1006.0909
 kinetic energy error for atom=    0.0022 (will be added to EATOM!!)
  PAW_PBE Mn_pv 02Aug2007               :
 energy of atom  2       EATOM=-2025.2664
 kinetic energy error for atom=    0.0058 (will be added to EATOM!!)
  PAW_PBE Te 08Apr2002                  :
 energy of atom  3       EATOM= -223.2721
 kinetic energy error for atom=    0.0007 (will be added to EATOM!!)
  PAW_PBE O 08Apr2002                   :
 energy of atom  4       EATOM= -432.3788
 kinetic energy error for atom=    0.0208 (will be added to EATOM!!)
 
 
 POSCAR: Ca12 Mn16 Te8 O48
  positions in direct lattice
  velocities in cartesian coordinates
 exchange correlation table for  LEXCH =        8
   RHO(1)=    0.500       N(1)  =     2000
   RHO(2)=  100.500       N(2)  =     4000
 


--------------------------------------------------------------------------------------------------------


 ion  position               nearest neighbor table
   1  0.290  0.237  0.320-  56 2.32  41 2.36  62 2.40  48 2.50  39 2.53  35 3.15  31 3.15
   2  0.077  0.747  0.640-  76 2.29  42 2.32  54 2.42  72 2.46  59 2.47  37 2.48  24 3.01  10 3.10

   3  0.421  0.737  0.639-  76 2.29  65 2.34  54 2.42  82 2.45  51 2.51  21 3.02  10 3.14
   4  0.751  0.284  0.842-  83 2.36  43 2.44  52 2.46  55 2.48  45 2.49  81 2.55  40 2.56   7 3.10
                             6 3.10  28 3.16  32 3.18
   5  0.915  0.762  0.152-  79 2.30  71 2.36  77 2.38  36 2.39  69 2.45  12 3.01   8 3.11  13 3.11

   6  0.423  0.237  0.846-  55 2.36  40 2.38  58 2.39  83 2.42  78 2.44  61 2.51  49 2.55  15 3.09
                             4 3.10
   7  0.079  0.237  0.851-  81 2.34  58 2.38  78 2.39  52 2.41  43 2.46  19 3.08   4 3.10
   8  0.244  0.717  0.159-  36 2.33  75 2.36  67 2.45  57 2.50  79 2.51  63 2.53   9 3.09   5 3.11
                            35 3.13  31 3.28
   9  0.572  0.759  0.155-  77 2.40  63 2.42  75 2.44  57 2.45  64 2.47  71 2.48  53 2.50  70 2.54
                             8 3.09  26 3.12
  10  0.751  0.769  0.685-  82 2.35  59 2.41  72 2.42  51 2.54  42 2.56  45 2.56  65 2.56   2 3.10
                             3 3.14  32 3.19  28 3.24
  11  0.913  0.251  0.360-  50 2.31  39 2.38  44 2.40  80 2.46  13 3.02
  12  0.908  0.603  0.384-  79 2.06  46 2.08  70 2.10  42 2.13  44 2.18   5 3.01  26 3.10  35 3.14
                            28 3.17
  13  0.931  0.084  0.133-  50 1.88  68 1.94  74 2.04  52 2.10  69 2.14  77 2.33  11 3.02   5 3.11
                            17 3.12  31 3.12  32 3.19
  14  0.085  0.421  0.103-  74 1.92  67 1.96  36 2.00  43 2.10  46 2.23  58 2.35  34 3.13  23 3.14
                            29 3.28
  15  0.417  0.402  0.609-  55 2.04  47 2.09  62 2.11  61 2.16  54 2.34  65 2.52  19 3.08   6 3.09
                            28 3.19  35 3.22
  16  0.593  0.093  0.610-  49 1.90  55 1.94  80 1.97  51 2.10  38 2.13  41 2.43  18 2.97  30 3.11
                            33 3.20
  17  0.599  0.103  0.149-  56 1.95  50 1.98  53 2.04  77 2.23  40 2.31  13 3.12  32 3.26  31 3.29

  18  0.910  0.077  0.619-  66 1.85  38 1.92  81 1.93  80 1.95  59 2.06  73 2.11  16 2.97  33 3.20
                            30 3.23
  19  0.087  0.401  0.616-  60 2.03  81 2.04  39 2.11  61 2.16  54 2.24  42 2.56   7 3.08  15 3.08
                            28 3.16  35 3.16
  20  0.582  0.581  0.894-  82 1.93  83 1.94  45 1.97  57 2.08  47 2.24  71 2.34  27 3.09  29 3.11
                            34 3.29
  21  0.410  0.906  0.866-  82 2.02  49 2.06  76 2.09  78 2.16  75 2.17  24 3.00   3 3.02  31 3.21
                            32 3.26
  22  0.086  0.922  0.388-  68 1.88  79 1.94  37 1.99  73 2.07  48 2.13  59 2.49  25 2.94  33 3.23
                            30 3.25
  23  0.922  0.581  0.901-  72 1.91  43 1.96  45 1.99  36 2.10  60 2.23  71 2.27  29 3.08  14 3.14
                            34 3.24
  24  0.090  0.904  0.873-  66 1.98  72 2.01  76 2.13  78 2.14  69 2.20  21 3.00   2 3.01  31 3.24
                            32 3.28
  25  0.399  0.909  0.386-  53 1.90  63 1.95  37 1.97  48 2.08  41 2.14  51 2.46  22 2.94  30 3.18
                            33 3.22
  26  0.578  0.570  0.381-  64 1.98  63 2.14  65 2.17  44 2.17  62 2.19  70 2.28  12 3.10   9 3.12
                            28 3.15  35 3.19
  27  0.425  0.423  0.095-  56 1.90  57 1.95  67 2.00  83 2.08  64 2.19  58 2.32  34 3.06  20 3.09
                            29 3.26
  28  0.754  0.449  0.597-  44 1.96  65 1.97  42 1.99  45 2.42  55 2.54  81 2.66  26 3.15  19 3.16
                             4 3.16  12 3.17  15 3.19  10 3.24
  29  0.250  0.566  0.876-  47 1.96  60 1.99  58 2.02  57 2.40  76 2.45  36 2.52  23 3.08  20 3.11
                            27 3.26  14 3.28
  30  0.739  0.930  0.403-  51 2.02  70 2.04  59 2.13  53 2.24  80 2.35  68 2.40  16 3.11  25 3.18
                            18 3.23  22 3.25
  31  0.259  0.048  0.092-  75 1.97  69 2.03  48 2.05  78 2.13  74 2.62  56 2.68  13 3.12   1 3.15
                            21 3.21  24 3.24   8 3.28  17 3.29
  32  0.748  0.964  0.915-  40 1.94  52 1.96  77 2.03  38 2.19  82 2.81   4 3.18  10 3.19  13 3.19
                            17 3.26  21 3.26  24 3.28
  33  0.252  0.064  0.610-  41 1.99  61 2.02  73 2.14  49 2.24  37 2.40  66 2.40  16 3.20  18 3.20
                            25 3.22  22 3.23
  34  0.751  0.437  0.119-  64 1.97  46 1.98  71 2.01  43 2.39  83 2.49  50 2.49  27 3.06  14 3.13
                            23 3.24  20 3.29
  35  0.239  0.548  0.397-  62 1.96  54 1.98  39 1.99  67 2.39  63 2.50  79 2.66   8 3.13  12 3.14
                             1 3.15  19 3.16  26 3.19  15 3.22
  36  0.070  0.615  0.038-  14 2.00  23 2.10   8 2.33   5 2.39  29 2.52
  37  0.242  0.855  0.494-  25 1.97  22 1.99  33 2.40   2 2.48
  38  0.759  0.037  0.731-  18 1.92  16 2.13  32 2.19
  39  0.110  0.387  0.429-  35 1.99  19 2.11  11 2.38   1 2.53
  40  0.598  0.099  0.943-  32 1.94  17 2.31   6 2.38   4 2.56
  41  0.388  0.104  0.478-  33 1.99  25 2.14   1 2.36  16 2.43
  42  0.904  0.592  0.573-  28 1.99  12 2.13   2 2.32  10 2.56  19 2.56
  43  0.929  0.395  0.970-  23 1.96  14 2.10  34 2.39   4 2.44   7 2.46
  44  0.758  0.435  0.423-  28 1.96  26 2.17  12 2.18  11 2.40
  45  0.753  0.538  0.799-  20 1.97  23 1.99  28 2.42   4 2.49  10 2.56
  46  0.911  0.494  0.224-  34 1.98  12 2.08  14 2.23
  47  0.407  0.512  0.770-  29 1.96  15 2.09  20 2.24
  48  0.248  0.987  0.267-  31 2.05  25 2.08  22 2.13   1 2.50
  49  0.451  0.022  0.715-  16 1.90  21 2.06  33 2.24   6 2.55
  50  0.781  0.194  0.194-  13 1.88  17 1.98  11 2.31  34 2.49
  51  0.594  0.893  0.533-  30 2.02  16 2.10  25 2.46   3 2.51  10 2.54
  52  0.891  0.108  0.949-  32 1.96  13 2.10   7 2.41   4 2.46
  53  0.549  0.970  0.284-  25 1.90  17 2.04  30 2.24   9 2.50
  54  0.243  0.571  0.573-  35 1.98  19 2.24  15 2.34   2 2.42   3 2.42
  55  0.572  0.277  0.679-  16 1.94  15 2.04   6 2.36   4 2.48  28 2.54
  56  0.447  0.242  0.160-  27 1.90  17 1.95   1 2.32  31 2.68
  57  0.428  0.609  0.025-  27 1.95  20 2.08  29 2.40   9 2.45   8 2.50
  58  0.253  0.375  0.951-  29 2.02  27 2.32  14 2.35   7 2.38   6 2.39
  59  0.893  0.886  0.537-  18 2.06  30 2.13  10 2.41   2 2.47  22 2.49
  60  0.088  0.500  0.776-  29 1.99  19 2.03  23 2.23
  61  0.254  0.261  0.674-  33 2.02  19 2.16  15 2.16   6 2.51
  62  0.404  0.425  0.423-  35 1.96  15 2.11  26 2.19   1 2.40
  63  0.422  0.719  0.328-  25 1.95  26 2.14   9 2.42  35 2.50   8 2.53
  64  0.589  0.511  0.212-  34 1.97  26 1.98  27 2.19   9 2.47
  65  0.602  0.588  0.573-  28 1.97  26 2.17   3 2.34  15 2.52  10 2.56
  66  0.044  0.007  0.725-  18 1.85  24 1.98  33 2.40
  67  0.256  0.466  0.197-  14 1.96  27 2.00  35 2.39   8 2.45
  68  0.944  0.998  0.288-  22 1.88  13 1.94  30 2.40
  69  0.079  0.933  0.067-  31 2.03  13 2.14  24 2.20   5 2.45
  70  0.741  0.736  0.331-  30 2.04  12 2.10  26 2.28   9 2.54
  71  0.753  0.625  0.042-  34 2.01  23 2.27  20 2.34   5 2.36   9 2.48
  72  0.944  0.760  0.829-  23 1.91  24 2.01  10 2.42   2 2.46
  73  0.076  0.099  0.492-  22 2.07  18 2.11  33 2.14
  74  0.077  0.236  0.167-  14 1.92  13 2.04  31 2.62
  75  0.380  0.886  0.057-  31 1.97  21 2.17   8 2.36   9 2.44
  76  0.251  0.794  0.777-  21 2.09  24 2.13   2 2.29   3 2.29  29 2.45
  77  0.744  0.931  0.094-  32 2.03  17 2.23  13 2.33   5 2.38   9 2.40
  78  0.248  0.061  0.902-  31 2.13  24 2.14  21 2.16   7 2.39   6 2.44
  79  0.058  0.740  0.318-  22 1.94  12 2.06   5 2.30   8 2.51  35 2.66
  80  0.760  0.140  0.510-  18 1.95  16 1.97  30 2.35  11 2.46
  81  0.940  0.263  0.679-  18 1.93  19 2.04   7 2.34   4 2.55  28 2.66
  82  0.561  0.763  0.823-  20 1.93  21 2.02  10 2.35   3 2.45  32 2.81
  83  0.574  0.394  0.958-  20 1.94  27 2.08   4 2.36   6 2.42  34 2.49
 

IMPORTANT INFORMATION: All symmetrisations will be switched off!
NOSYMM: (Re-)initialisation of all symmetry stuff for point group C_1.


----------------------------------------------------------------------------------------

                                     Primitive cell                                     

  volume of cell :    1008.5328

  direct lattice vectors                    reciprocal lattice vectors
     9.354161262  0.000000000  0.000000000     0.106904293  0.000000000  0.000000000
     0.000000000  9.616332054  0.000000000     0.000000000  0.103989754  0.000000000
     0.000000000  0.000000000 11.211810112     0.000000000  0.000000000  0.089191664

  length of vectors
     9.354161262  9.616332054 11.211810112     0.106904293  0.103989754  0.089191664

  position of ions in fractional coordinates (direct lattice)
     0.289711669  0.236779793  0.320167468
     0.076507465  0.747112946  0.640330575
     0.420797592  0.736676024  0.638760798
     0.751273806  0.284263697  0.841859546
     0.915110869  0.761659188  0.152356675
     0.423209719  0.237351805  0.845929985
     0.078844498  0.236662659  0.851419559
     0.244395794  0.716563998  0.158564965
     0.572360206  0.758516511  0.155371967
     0.750606365  0.769282982  0.685412053
     0.913317307  0.251001312  0.360333703
     0.908228434  0.603219407  0.383743190
     0.930593575  0.084136093  0.132553705
     0.085247595  0.421257500  0.102640664
     0.416922441  0.402109342  0.609146864
     0.592841415  0.092572485  0.610014019
     0.598666578  0.103029779  0.149329459
     0.909931360  0.077101033  0.618856512
     0.087316693  0.400747410  0.615961168
     0.581711683  0.581363957  0.893807488
     0.410097258  0.905789848  0.865572760
     0.085925343  0.922330224  0.387706209
     0.921823448  0.581051572  0.900514635
     0.089916461  0.903592739  0.872530549
     0.399479046  0.909286802  0.386297851
     0.578356280  0.569681532  0.381149593
     0.425447967  0.422704854  0.094524648
     0.754020634  0.448641291  0.597409478
     0.249802129  0.566345935  0.875807825
     0.738683046  0.930465165  0.402690279
     0.258761522  0.047847582  0.091851130
     0.748346398  0.964344534  0.915333316
     0.251931554  0.063986117  0.609540922
     0.751321354  0.436541289  0.119093585
     0.238587324  0.547843221  0.397485719
     0.070289078  0.615146760  0.038299075
     0.242029752  0.854534539  0.493714236
     0.759431786  0.037266089  0.730688662
     0.109516069  0.386953093  0.428752332
     0.598083803  0.098804685  0.943323661
     0.387563009  0.104204708  0.477714543
     0.904402783  0.592368841  0.573233410
     0.929202618  0.394542658  0.970366686
     0.758088950  0.435410950  0.423266064
     0.752572624  0.538036681  0.798854653
     0.911027132  0.493670488  0.223700398
     0.407403609  0.511641784  0.770141827
     0.248332451  0.987047102  0.267286696
     0.450833897  0.022116910  0.715268354
     0.781033107  0.194235172  0.193640345
     0.594388469  0.892793046  0.533321418
     0.891447305  0.108062370  0.949082469
     0.549254832  0.969510992  0.284472653
     0.242594436  0.570711147  0.572827014
     0.571924076  0.276558420  0.678993739
     0.447051600  0.242057701  0.159787888
     0.428183747  0.609148911  0.025387333
     0.253038599  0.375397428  0.951252005
     0.892997961  0.886336986  0.537039824
     0.087556611  0.500125250  0.776077315
     0.254196224  0.260789366  0.673637826
     0.403894273  0.425340508  0.422773078
     0.422077358  0.719432004  0.328217187
     0.588892096  0.511011598  0.211700698
     0.601690851  0.587798008  0.573129566
     0.043550626  0.006639924  0.724697571
     0.255818108  0.465863630  0.196719400
     0.944352100  0.997653857  0.288463743
     0.079291361  0.933146543  0.067346565
     0.741456364  0.735740927  0.331259150
     0.753308441  0.625318105  0.041517448
     0.943527114  0.759732684  0.829190281
     0.075541741  0.098856820  0.492232269
     0.076869322  0.236050983  0.166514893
     0.379530696  0.885634973  0.056529840
     0.250932306  0.793804524  0.777350483
     0.743511279  0.930533414  0.094061578
     0.248159414  0.060699056  0.902009181
     0.057852359  0.740126376  0.317891527
     0.759953675  0.139566512  0.510361344
     0.940208569  0.262890950  0.679066826
     0.560620925  0.763167474  0.822626002
     0.573904610  0.393783447  0.958150051

  ion indices of the primitive-cell ions
   primitive index   ion index
                 1           1
                 2           2
                 3           3
                 4           4
                 5           5
                 6           6
                 7           7
                 8           8
                 9           9
                10          10
                11          11
                12          12
                13          13
                14          14
                15          15
                16          16
                17          17
                18          18
                19          19
                20          20
                21          21
                22          22
                23          23
                24          24
                25          25
                26          26
                27          27
                28          28
                29          29
                30          30
                31          31
                32          32
                33          33
                34          34
                35          35
                36          36
                37          37
                38          38
                39          39
                40          40
                41          41
                42          42
                43          43
                44          44
                45          45
                46          46
                47          47
                48          48
                49          49
                50          50
                51          51
                52          52
                53          53
                54          54
                55          55
                56          56
                57          57
                58          58
                59          59
                60          60
                61          61
                62          62
                63          63
                64          64
                65          65
                66          66
                67          67
                68          68
                69          69
                70          70
                71          71
                72          72
                73          73
                74          74
                75          75
                76          76
                77          77
                78          78
                79          79
                80          80
                81          81
                82          82
                83          83

----------------------------------------------------------------------------------------

 
 
 KPOINTS: Fully automatic kpoint scheme           

Automatic generation of k-mesh.
 Grid dimensions derived from RKLEN:
 generate k-points for:    3    3    3

 Generating k-lattice:

  Cartesian coordinates                     Fractional coordinates (reciprocal lattice)
     0.035634764  0.000000000  0.000000000     0.333333333  0.000000000  0.000000000
     0.000000000  0.034663251  0.000000000     0.000000000  0.333333333  0.000000000
     0.000000000  0.000000000  0.029730555     0.000000000  0.000000000  0.333333333

  Length of vectors
     0.035634764  0.034663251  0.029730555

  Shift w.r.t. Gamma in fractional coordinates (k-lattice)
     0.000000000  0.000000000  0.000000000

 
 Subroutine IBZKPT returns following result:
 ===========================================
 
 Found     14 irreducible k-points:
 
 Following reciprocal coordinates:
            Coordinates               Weight
  0.000000  0.000000  0.000000      1.000000
  0.333333  0.000000  0.000000      2.000000
  0.000000  0.333333  0.000000      2.000000
  0.333333  0.333333  0.000000      2.000000
  0.333333 -0.333333  0.000000      2.000000
  0.000000  0.000000  0.333333      2.000000
  0.333333  0.000000  0.333333      2.000000
  0.333333  0.000000 -0.333333      2.000000
  0.000000  0.333333  0.333333      2.000000
  0.000000  0.333333 -0.333333      2.000000
  0.333333  0.333333  0.333333      2.000000
  0.333333 -0.333333 -0.333333      2.000000
 -0.333333  0.333333 -0.333333      2.000000
 -0.333333 -0.333333  0.333333      2.000000
 
 Following cartesian coordinates:
            Coordinates               Weight
  0.000000  0.000000  0.000000      1.000000
  0.035635  0.000000  0.000000      2.000000
  0.000000  0.034663  0.000000      2.000000
  0.035635  0.034663  0.000000      2.000000
  0.035635 -0.034663  0.000000      2.000000
  0.000000  0.000000  0.029731      2.000000
  0.035635  0.000000  0.029731      2.000000
  0.035635  0.000000 -0.029731      2.000000
  0.000000  0.034663  0.029731      2.000000
  0.000000  0.034663 -0.029731      2.000000
  0.035635  0.034663  0.029731      2.000000
  0.035635 -0.034663 -0.029731      2.000000
 -0.035635  0.034663 -0.029731      2.000000
 -0.035635 -0.034663  0.029731      2.000000
 


--------------------------------------------------------------------------------------------------------




 Dimension of arrays:
   k-points           NKPTS =     14   k-points in BZ     NKDIM =     14   number of bands    NBANDS=    432
   number of dos      NEDOS =    301   number of ions     NIONS =     83
   non local maximal  LDIM  =      6   non local SUM 2l+1 LMDIM =     18
   total plane-waves  NPLWV = 423360
   max r-space proj   IRMAX =   6983   max aug-charges    IRDMAX=  24612
   dimension x,y,z NGX =    70 NGY =   72 NGZ =   84
   dimension x,y,z NGXF=   140 NGYF=  144 NGZF=  168
   support grid    NGXF=   140 NGYF=  144 NGZF=  168
   ions per type =              11  16   8  48
   NGX,Y,Z   is equivalent  to a cutoff of  12.44, 12.45, 12.46 a.u.
   NGXF,Y,Z  is equivalent  to a cutoff of  24.88, 24.89, 24.91 a.u.

 SYSTEM =  unknown system                          
 POSCAR =  Ca12 Mn16 Te8 O48                       

 Startparameter for this run:
   NWRITE =      1    write-flag & timer
   PREC   = accura    normal or accurate (medium, high low for compatibility)
   ISTART =      0    job   : 0-new  1-cont  2-samecut
   ICHARG =      1    charge: 1-file 2-atom 10-const
   ISPIN  =      2    spin polarized calculation?
   LNONCOLLINEAR =      F non collinear calculations
   LSORBIT =      F    spin-orbit coupling
   INIWAV =      1    electr: 0-lowe 1-rand  2-diag
   LASPH  =      F    aspherical Exc in radial PAW
 Electronic Relaxation 1
   ENCUT  =  520.0 eV  38.22 Ry    6.18 a.u.  17.39 17.88 20.85*2*pi/ulx,y,z
   ENINI  =  520.0     initial cutoff
   ENAUG  =  605.4 eV  augmentation charge cutoff
   NELM   =    100;   NELMIN=  6; NELMDL= -5     # of ELM steps 
   EDIFF  = 0.1E-04   stopping-criterion for ELM
   LREAL  =      T    real-space projection
   NLSPLINE    = F    spline interpolate recip. space projectors
   LCOMPAT=      F    compatible to vasp.4.4
   GGA_COMPAT  = T    GGA compatible to vasp.4.4-vasp.4.6
   LMAXPAW     = -100 max onsite density
   LMAXMIX     =    2 max onsite mixed and CHGCAR
   VOSKOWN=      0    Vosko Wilk Nusair interpolation
   ROPT   =   -0.00025  -0.00025  -0.00025  -0.00025
 Ionic relaxation
   EDIFFG = -.3E-01   stopping-criterion for IOM
   NSW    =    199    number of steps for IOM
   NBLOCK =      1;   KBLOCK =    199    inner block; outer block 
   IBRION =      2    ionic relax: 0-MD 1-quasi-New 2-CG
   NFREE  =      1    steps in history (QN), initial steepest desc. (CG)
   ISIF   =      2    stress and relaxation
   IWAVPR =     11    prediction:  0-non 1-charg 2-wave 3-comb
   ISYM   =      0    0-nonsym 1-usesym 2-fastsym
   LCORR  =      T    Harris-Foulkes like correction to forces

   POTIM  = 0.5000    time-step for ionic-motion
   TEIN   =    0.0    initial temperature
   TEBEG  =    0.0;   TEEND  =   0.0 temperature during run
   SMASS  =  -3.00    Nose mass-parameter (am)
   estimated Nose-frequenzy (Omega)   =  0.10E-29 period in steps = 0.13E+47 mass=  -0.200E-26a.u.
   SCALEE = 1.0000    scale energy and forces
   NPACO  =    256;   APACO  = 10.0  distance and # of slots for P.C.
   PSTRESS=    0.0 pullay stress

  Mass of Ions in am
   POMASS =  40.08 54.94127.60 16.00
  Ionic Valenz
   ZVAL   =  10.00 13.00  6.00  6.00
  Atomic Wigner-Seitz radii
   RWIGS  =  -1.00 -1.00 -1.00 -1.00
  virtual crystal weights 
   VCA    =   1.00  1.00  1.00  1.00
   NELECT =     654.0000    total number of electrons
   NUPDOWN=      -1.0000    fix difference up-down

 DOS related values:
   EMIN   =  10.00;   EMAX   =-10.00  energy-range for DOS
   EFERMI =   0.00;   METHOD = LEGACY      
   ISMEAR =     0;   SIGMA  =   0.05  broadening in eV -4-tet -1-fermi 0-gaus

 Electronic relaxation 2 (details)
   IALGO  =     58    algorithm
   LDIAG  =      T    sub-space diagonalisation (order eigenvalues)
   LSUBROT=      F    optimize rotation matrix (better conditioning)
   TURBO    =      0    0=normal 1=particle mesh
   IRESTART =      0    0=no restart 2=restart with 2 vectors
   NREBOOT  =      0    no. of reboots
   NMIN     =      0    reboot dimension
   EREF     =   0.00    reference energy to select bands
   IMIX   =      4    mixing-type and parameters
     AMIX     =   0.40;   BMIX     =  1.00
     AMIX_MAG =   1.60;   BMIX_MAG =  1.00
     AMIN     =   0.10
     WC   =   100.;   INIMIX=   1;  MIXPRE=   1;  MAXMIX= -45

 Intra band minimization:
   WEIMIN = 0.0010     energy-eigenvalue tresh-hold
   EBREAK =  0.58E-08  absolut break condition
   DEPER  =   0.30     relativ break condition  

   TIME   =   0.40     timestep for ELM

  volume/ion in A,a.u.               =      12.15        82.00
  Fermi-wavevector in a.u.,A,eV,Ry     =   1.417003  2.677747 27.319100  2.007897
  Thomas-Fermi vector in A             =   2.538278
 
 Write flags
   LWAVE        =      F    write WAVECAR
   LDOWNSAMPLE  =      F    k-point downsampling of WAVECAR
   LCHARG       =      T    write CHGCAR
   LVTOT        =      F    write LOCPOT, total local potential
   LVHAR        =      F    write LOCPOT, Hartree potential only
   LELF         =      F    write electronic localiz. function (ELF)
   LORBIT       =     11    0 simple, 1 ext, 2 COOP (PROOUT), +10 PAW based schemes


 Dipole corrections
   LMONO  =      F    monopole corrections only (constant potential shift)
   LDIPOL =      F    correct potential (dipole corrections)
   IDIPOL =      0    1-x, 2-y, 3-z, 4-all directions 
   EPSILON=  1.0000000 bulk dielectric constant

 Exchange correlation treatment:
   GGA     =    --    GGA type
   LEXCH   =     8    internal setting for exchange type
   LIBXC   =     F    Libxc                    
   VOSKOWN =     0    Vosko Wilk Nusair interpolation
   LHFCALC =     F    Hartree Fock is set to
   LHFONE  =     F    Hartree Fock one center treatment
   AEXX    =    0.0000 exact exchange contribution

 Linear response parameters
   LEPSILON=     F    determine dielectric tensor
   LRPA    =     F    only Hartree local field effects (RPA)
   LNABLA  =     F    use nabla operator in PAW spheres
   LVEL    =     F    velocity operator in full k-point grid
   CSHIFT  =0.1000    complex shift for real part using Kramers Kronig
   OMEGAMAX=  -1.0    maximum frequency
   DEG_THRESHOLD= 0.2000000E-02 threshold for treating states as degnerate
   RTIME   =   -0.100 relaxation time in fs
  (WPLASMAI=    0.000 imaginary part of plasma frequency in eV, 0.658/RTIME)
   DFIELD  = 0.0000000 0.0000000 0.0000000 field for delta impulse in time
 
  Optional k-point grid parameters
   LKPOINTS_OPT  =     F    use optional k-point grid
   KPOINTS_OPT_MODE=     1    mode for optional k-point grid
 
 Orbital magnetization related:
   ORBITALMAG=     F  switch on orbital magnetization
   LCHIMAG   =     F  perturbation theory with respect to B field
   DQ        =  0.001000  dq finite difference perturbation B field
   LLRAUG    =     F  two centre corrections for induced B field
   LBONE     =     F  B-component reconstruction in AE one-centre
   LVGVCALC  =     T  calculate vGv susceptibility
   LVGVAPPL  =     F  apply vGv susceptibility instead of pGv for G=0

 Random number generation:
   RANDOM_GENERATOR = DEFAULT
   PCG_SEED         = not used


--------------------------------------------------------------------------------------------------------


 conjugate gradient relaxation of ions
 charge density and potential will be updated during run
 spin polarized calculation
 Conjugate gradient for all bands (Freysoldt, et al. PRB 79, 241103 (2009))
 preconditioned conjugated gradient                                        
 perform sub-space diagonalisation
    before iterative eigenvector-optimisation
 modified Broyden-mixing scheme, WC =      100.0
 initial mixing is a Kerker type mixing with AMIX =  0.4000 and BMIX =      1.0000
 Hartree-type preconditioning will be used
 using additional bands          105
 real space projection scheme for non local part
 use partial core corrections
 no Harris-corrections to forces 
 use gradient corrections 
 use of overlap-Matrix (Vanderbilt PP)
 Gauss-broadening in eV      SIGMA  =   0.05


--------------------------------------------------------------------------------------------------------


  energy-cutoff  :      520.00
  volume of cell :     1008.53
      direct lattice vectors                 reciprocal lattice vectors
     9.354161262  0.000000000  0.000000000     0.106904293  0.000000000  0.000000000
     0.000000000  9.616332054  0.000000000     0.000000000  0.103989754  0.000000000
     0.000000000  0.000000000 11.211810112     0.000000000  0.000000000  0.089191664

  length of vectors
     9.354161262  9.616332054 11.211810112     0.106904293  0.103989754  0.089191664


 
 k-points in units of 2pi/SCALE and weight: Fully automatic kpoint scheme           
   0.00000000  0.00000000  0.00000000       0.037
   0.03563476  0.00000000  0.00000000       0.074
   0.00000000  0.03466325  0.00000000       0.074
   0.03563476  0.03466325  0.00000000       0.074
   0.03563476 -0.03466325  0.00000000       0.074
   0.00000000  0.00000000  0.02973055       0.074
   0.03563476  0.00000000  0.02973055       0.074
   0.03563476  0.00000000 -0.02973055       0.074
   0.00000000  0.03466325  0.02973055       0.074
   0.00000000  0.03466325 -0.02973055       0.074
   0.03563476  0.03466325  0.02973055       0.074
   0.03563476 -0.03466325 -0.02973055       0.074
  -0.03563476  0.03466325 -0.02973055       0.074
  -0.03563476 -0.03466325  0.02973055       0.074
 
 k-points in reciprocal lattice and weights: Fully automatic kpoint scheme           
   0.00000000  0.00000000  0.00000000       0.037
   0.33333333  0.00000000  0.00000000       0.074
   0.00000000  0.33333333  0.00000000       0.074
   0.33333333  0.33333333  0.00000000       0.074
   0.33333333 -0.33333333  0.00000000       0.074
   0.00000000  0.00000000  0.33333333       0.074
   0.33333333  0.00000000  0.33333333       0.074
   0.33333333  0.00000000 -0.33333333       0.074
   0.00000000  0.33333333  0.33333333       0.074
   0.00000000  0.33333333 -0.33333333       0.074
   0.33333333  0.33333333  0.33333333       0.074
   0.33333333 -0.33333333 -0.33333333       0.074
  -0.33333333  0.33333333 -0.33333333       0.074
  -0.33333333 -0.33333333  0.33333333       0.074
 
 position of ions in fractional coordinates (direct lattice) 
   0.28971167  0.23677979  0.32016747
   0.07650746  0.74711295  0.64033057
   0.42079759  0.73667602  0.63876080
   0.75127381  0.28426370  0.84185955
   0.91511087  0.76165919  0.15235668
   0.42320972  0.23735180  0.84592999
   0.07884450  0.23666266  0.85141956
   0.24439579  0.71656400  0.15856497
   0.57236021  0.75851651  0.15537197
   0.75060636  0.76928298  0.68541205
   0.91331731  0.25100131  0.36033370
   0.90822843  0.60321941  0.38374319
   0.93059357  0.08413609  0.13255371
   0.08524759  0.42125750  0.10264066
   0.41692244  0.40210934  0.60914686
   0.59284141  0.09257249  0.61001402
   0.59866658  0.10302978  0.14932946
   0.90993136  0.07710103  0.61885651
   0.08731669  0.40074741  0.61596117
   0.58171168  0.58136396  0.89380749
   0.41009726  0.90578985  0.86557276
   0.08592534  0.92233022  0.38770621
   0.92182345  0.58105157  0.90051463
   0.08991646  0.90359274  0.87253055
   0.39947905  0.90928680  0.38629785
   0.57835628  0.56968153  0.38114959
   0.42544797  0.42270485  0.09452465
   0.75402063  0.44864129  0.59740948
   0.24980213  0.56634593  0.87580782
   0.73868305  0.93046517  0.40269028
   0.25876152  0.04784758  0.09185113
   0.74834640  0.96434453  0.91533332
   0.25193155  0.06398612  0.60954092
   0.75132135  0.43654129  0.11909358
   0.23858732  0.54784322  0.39748572
   0.07028908  0.61514676  0.03829907
   0.24202975  0.85453454  0.49371424
   0.75943179  0.03726609  0.73068866
   0.10951607  0.38695309  0.42875233
   0.59808380  0.09880469  0.94332366
   0.38756301  0.10420471  0.47771454
   0.90440278  0.59236884  0.57323341
   0.92920262  0.39454266  0.97036669
   0.75808895  0.43541095  0.42326606
   0.75257262  0.53803668  0.79885465
   0.91102713  0.49367049  0.22370040
   0.40740361  0.51164178  0.77014183
   0.24833245  0.98704710  0.26728670
   0.45083390  0.02211691  0.71526835
   0.78103311  0.19423517  0.19364035
   0.59438847  0.89279305  0.53332142
   0.89144730  0.10806237  0.94908247
   0.54925483  0.96951099  0.28447265
   0.24259444  0.57071115  0.57282701
   0.57192408  0.27655842  0.67899374
   0.44705160  0.24205770  0.15978789
   0.42818375  0.60914891  0.02538733
   0.25303860  0.37539743  0.95125201
   0.89299796  0.88633699  0.53703982
   0.08755661  0.50012525  0.77607732
   0.25419622  0.26078937  0.67363783
   0.40389427  0.42534051  0.42277308
   0.42207736  0.71943200  0.32821719
   0.58889210  0.51101160  0.21170070
   0.60169085  0.58779801  0.57312957
   0.04355063  0.00663992  0.72469757
   0.25581811  0.46586363  0.19671940
   0.94435210  0.99765386  0.28846374
   0.07929136  0.93314654  0.06734657
   0.74145636  0.73574093  0.33125915
   0.75330844  0.62531811  0.04151745
   0.94352711  0.75973268  0.82919028
   0.07554174  0.09885682  0.49223227
   0.07686932  0.23605098  0.16651489
   0.37953070  0.88563497  0.05652984
   0.25093231  0.79380452  0.77735048
   0.74351128  0.93053341  0.09406158
   0.24815941  0.06069906  0.90200918
   0.05785236  0.74012638  0.31789153
   0.75995368  0.13956651  0.51036134
   0.94020857  0.26289095  0.67906683
   0.56062093  0.76316747  0.82262600
   0.57390461  0.39378345  0.95815005
 
 position of ions in cartesian coordinates  (Angst):
   2.71000967  2.27695311  3.58965686
   0.71566316  7.18448617  7.17926481
   3.93620854  7.08412126  7.16166477
   7.02753633  2.73357410  9.43876937
   8.56009464  7.32436767  1.70819411
   3.95877196  2.28245377  9.48440636
   0.73752415  2.27582672  9.54595442
   2.28611767  6.89071734  1.77780028
   5.35394967  7.29414664  1.74200100
   7.02129298  7.39768059  7.68470978
   8.54331737  2.41371196  4.03999306
   8.49571523  5.80075812  4.30245578
   8.70492237  0.80908061  1.48616698
   0.79741975  4.05095200  1.15078764
   3.89995975  3.86681696  6.82963897
   5.54553420  0.89020776  6.83936134
   5.60002371  0.99076857  1.67425354
   8.51164468  0.74142913  6.93850170
   0.81677443  3.85372017  6.90603965
   5.44142489  5.59058886 10.02119983
   3.83611589  8.71037595  9.70463743
   0.80375952  8.86943369  4.34688839
   8.62288519  5.58758486 10.09639909
   0.84109308  8.68924782  9.78264683
   3.73679142  8.74400382  4.33109815
   5.41003791  5.47824677  4.27337686
   3.97970889  4.06487023  1.05979240
   7.05323061  4.31428363  6.69804162
   2.33668940  5.44617057  9.81939102
   6.90976033  8.94766200  4.51488695
   2.42049700  0.46011823  1.02981742
   7.00015289  9.27345726 10.26254333
   2.35660839  0.61531175  6.83405707
   7.02798110  4.19792599  1.33525466
   2.23178431  5.26824233  4.45653440
   0.65749537  5.91545551  0.42940196
   2.26398533  8.21748788  5.53543027
   7.10384740  0.35836308  8.19234253
   1.02443097  3.72106943  4.80708973
   5.59457234  0.95013866 10.57636576
   3.62532689  1.00206707  5.35604475
   8.45992948  5.69641547  6.42698414
   8.69191113  3.79405321 10.87956702
   7.09128629  4.18705627  4.74557873
   7.03968568  5.17393938  8.95660668
   8.52189471  4.74729934  2.50808638
   3.81091905  4.92011728  8.63468392
   2.32294179  9.49177269  2.99676768
   4.21717297  0.21268355  8.01945297
   7.30590964  1.86782991  2.17105878
   5.56000559  8.58539438  5.97949847
   8.33874185  1.03916363 10.64093242
   5.13781827  9.32313963  3.18945337
   2.26926747  5.48814789  6.42242771
   5.34987004  2.65947760  7.61274887
   4.18179276  2.32770723  1.79151145
   4.00529982  5.85777820  0.28463796
   2.36696386  3.60994632 10.66525685
   8.35324694  8.52331077  6.02118853
   0.81901866  4.80937047  8.70123149
   2.37779247  2.50783714  7.55269939
   3.77809216  4.09021557  4.74005147
   3.94817967  6.91829704  3.67990877
   5.50859163  4.91405721  2.37354803
   5.62831325  5.65246082  6.42581986
   0.40737958  0.06385171  8.12517155
   2.39296383  4.47989936  2.20558056
   8.83362183  9.59377076  3.23420072
   0.74170418  8.97344701  0.75507690
   6.93570240  7.07512906  3.71401468
   7.04656864  6.01326654  0.46548575
   8.82590478  7.30584176  9.29672397
   0.70662963  0.95064001  5.51881473
   0.71904804  2.26994464  1.86693337
   3.55019134  8.51655998  0.63380183
   2.34726126  7.63348789  8.71550601
   6.95492440  8.94831830  1.05460055
   2.32132318  0.58370228 10.11315565
   0.54116030  7.11730099  3.56413944
   7.10872923  1.34211792  5.72207448
   8.79486257  2.52804667  7.61356830
   5.24413854  7.33887185  9.22312653
   5.36839628  3.78675238 10.74259643
 


--------------------------------------------------------------------------------------------------------


 k-point   1 :   0.0000 0.0000 0.0000  plane waves:   27137
 k-point   2 :   0.3333 0.0000 0.0000  plane waves:   27139
 k-point   3 :   0.0000 0.3333 0.0000  plane waves:   27186
 k-point   4 :   0.3333 0.3333 0.0000  plane waves:   27174
 k-point   5 :   0.3333-0.3333 0.0000  plane waves:   27174
 k-point   6 :   0.0000 0.0000 0.3333  plane waves:   27136
 k-point   7 :   0.3333 0.0000 0.3333  plane waves:   27153
 k-point   8 :   0.3333 0.0000-0.3333  plane waves:   27153
 k-point   9 :   0.0000 0.3333 0.3333  plane waves:   27195
 k-point  10 :   0.0000 0.3333-0.3333  plane waves:   27195
 k-point  11 :   0.3333 0.3333 0.3333  plane waves:   27150
 k-point  12 :   0.3333-0.3333-0.3333  plane waves:   27150
 k-point  13 :  -0.3333 0.3333-0.3333  plane waves:   27150
 k-point  14 :  -0.3333-0.3333 0.3333  plane waves:   27150

 maximum and minimum number of plane-waves per node :      1736     1647

 maximum number of plane-waves:     27195
 maximum index in each direction: 
   IXMAX=   17   IYMAX=   18   IZMAX=   21
   IXMIN=  -17   IYMIN=  -18   IZMIN=  -21


 real space projection operators:
  total allocation   :      33137.07 KBytes
  max/ min on nodes  :       2407.62       1834.67


 parallel 3D FFT for wavefunctions:
    minimum data exchange during FFTs selected (reduces bandwidth)
 parallel 3D FFT for charge:
    minimum data exchange during FFTs selected (reduces bandwidth)


 total amount of memory used by VASP MPI-rank0   181940. kBytes
=======================================================================

   base      :      30000. kBytes
   nonlr-proj:      12784. kBytes
   fftplans  :       2375. kBytes
   grid      :       7121. kBytes
   one-center:        186. kBytes
   wavefun   :     129474. kBytes
 
     INWAV:  cpu time      0.0001: real time      0.0002
 Broyden mixing: mesh for mixing (old mesh)
   NGX = 35   NGY = 35   NGZ = 41
  (NGX  =140   NGY  =144   NGZ  =168)
  gives a total of  50225 points

 initial charge density was supplied:
 charge density of overlapping atoms calculated
 number of electron     654.0000000 magnetization      76.0200000
 keeping initial charge density in first step


--------------------------------------------------------------------------------------------------------


 Maximum index for non-local projection operator          751
 Maximum index for augmentation-charges         1307 (set IRDMAX)


--------------------------------------------------------------------------------------------------------


 First call to EWALD:  gamma=   0.177
 Maximum number of real-space cells 3x 3x 3
 Maximum number of reciprocal cells 3x 3x 3

    FEWALD:  cpu time      0.0047: real time      0.0049


--------------------------------------- Ionic step        1  -------------------------------------------




--------------------------------------- Iteration      1(   1)  ---------------------------------------


    POTLOK:  cpu time      0.0662: real time      0.0674
    SETDIJ:  cpu time      0.0146: real time      0.0148
    TRIAL :  cpu time     37.0107: real time     37.9994
    CORREC:  cpu time      0.0032: real time      0.0033
    --------------------------------------------
      LOOP:  cpu time     37.2378: real time     38.2306

 eigenvalue-minimisations  : 24952
 total energy-change (2. order) : 0.8595579E+04  (-0.3577501E+05)
 number of electron     654.0000000 magnetization      76.0200000
 augmentation part      654.0000000 magnetization      76.0200000

 Free energy of the ion-electron system (eV)
  ---------------------------------------------------
  alpha Z        PSCENC =      2611.28229877
  Ewald energy   TEWEN  =    -46502.16707116
  -Hartree energ DENC   =    -18557.18592771
  -exchange      EXHF   =         0.00000000
  -V(xc)+E(xc)   XCENC  =      2704.60717195
  PAW double counting   =     52814.75541535   -53291.81563426
  entropy T*S    EENTRO =        -0.02896360
  eigenvalues    EBANDS =      2805.63162487
  atomic energy  EATOM  =     66010.50024545
  ---------------------------------------------------
  free energy    TOTEN  =      8595.57915966 eV

  energy without entropy =     8595.60812326  energy(sigma->0) =     8595.59364146


--------------------------------------------------------------------------------------------------------




--------------------------------------- Iteration      1(   2)  ---------------------------------------


    TRIAL :  cpu time     36.1844: real time     37.1533
    CORREC:  cpu time      0.0034: real time      0.0035
    --------------------------------------------
      LOOP:  cpu time     36.1889: real time     37.1596

 eigenvalue-minimisations  : 24272
 total energy-change (2. order) :-0.7984973E+04  (-0.7449564E+04)
 number of electron     654.0000000 magnetization      76.0200000
 augmentation part      654.0000000 magnetization      76.0200000

 Free energy of the ion-electron system (eV)
  ---------------------------------------------------
  alpha Z        PSCENC =      2611.28229877
  Ewald energy   TEWEN  =    -46502.16707116
  -Hartree energ DENC   =    -18557.18592771
  -exchange      EXHF   =         0.00000000
  -V(xc)+E(xc)   XCENC  =      2704.60717195
  PAW double counting   =     52814.75541535   -53291.81563426
  entropy T*S    EENTRO =        -0.02599744
  eigenvalues    EBANDS =     -5179.34391699
  atomic energy  EATOM  =     66010.50024545
  ---------------------------------------------------
  free energy    TOTEN  =       610.60658396 eV

  energy without entropy =      610.63258140  energy(sigma->0) =      610.61958268


--------------------------------------------------------------------------------------------------------




--------------------------------------- Iteration      1(   3)  ---------------------------------------


    TRIAL :  cpu time     40.0779: real time     41.0792
    CORREC:  cpu time      0.0035: real time      0.0035
    --------------------------------------------
      LOOP:  cpu time     40.0827: real time     41.0858

 eigenvalue-minimisations  : 27632
 total energy-change (2. order) :-0.1221421E+04  (-0.1169671E+04)
 number of electron     654.0000000 magnetization      76.0200000
 augmentation part      654.0000000 magnetization      76.0200000

 Free energy of the ion-electron system (eV)
  ---------------------------------------------------
  alpha Z        PSCENC =      2611.28229877
  Ewald energy   TEWEN  =    -46502.16707116
  -Hartree energ DENC   =    -18557.18592771
  -exchange      EXHF   =         0.00000000
  -V(xc)+E(xc)   XCENC  =      2704.60717195
  PAW double counting   =     52814.75541535   -53291.81563426
  entropy T*S    EENTRO =        -0.02778184
  eigenvalues    EBANDS =     -6400.76321598
  atomic energy  EATOM  =     66010.50024545
  ---------------------------------------------------
  free energy    TOTEN  =      -610.81449943 eV

  energy without entropy =     -610.78671759  energy(sigma->0) =     -610.80060851


--------------------------------------------------------------------------------------------------------




--------------------------------------- Iteration      1(   4)  ---------------------------------------


    TRIAL :  cpu time     44.0674: real time     45.1209
    CORREC:  cpu time      0.0036: real time      0.0036
    --------------------------------------------
      LOOP:  cpu time     44.0732: real time     45.1282

 eigenvalue-minimisations  : 31312
 total energy-change (2. order) :-0.8290806E+02  (-0.8061627E+02)
 number of electron     654.0000000 magnetization      76.0200000
 augmentation part      654.0000000 magnetization      76.0200000

 Free energy of the ion-electron system (eV)
  ---------------------------------------------------
  alpha Z        PSCENC =      2611.28229877
  Ewald energy   TEWEN  =    -46502.16707116
  -Hartree energ DENC   =    -18557.18592771
  -exchange      EXHF   =         0.00000000
  -V(xc)+E(xc)   XCENC  =      2704.60717195
  PAW double counting   =     52814.75541535   -53291.81563426
  entropy T*S    EENTRO =        -0.04254439
  eigenvalues    EBANDS =     -6483.65651371
  atomic energy  EATOM  =     66010.50024545
  ---------------------------------------------------
  free energy    TOTEN  =      -693.72255971 eV

  energy without entropy =     -693.68001532  energy(sigma->0) =     -693.70128752


--------------------------------------------------------------------------------------------------------




--------------------------------------- Iteration      1(   5)  ---------------------------------------


    TRIAL :  cpu time     57.2364: real time     58.4650
    CORREC:  cpu time      0.0034: real time      0.0034
    CHARGE:  cpu time      0.5943: real time      0.5994
    --------------------------------------------
      LOOP:  cpu time     57.8358: real time     59.0709

 eigenvalue-minimisations  : 43488
 total energy-change (2. order) :-0.4951121E+01  (-0.4907547E+01)
 number of electron     654.0000027 magnetization      65.5061379
 augmentation part      164.2587132 magnetization      38.1336018

 Free energy of the ion-electron system (eV)
  ---------------------------------------------------
  alpha Z        PSCENC =      2611.28229877
  Ewald energy   TEWEN  =    -46502.16707116
  -Hartree energ DENC   =    -18557.18592771
  -exchange      EXHF   =         0.00000000
  -V(xc)+E(xc)   XCENC  =      2704.60717195
  PAW double counting   =     52814.75541535   -53291.81563426
  entropy T*S    EENTRO =        -0.04424667
  eigenvalues    EBANDS =     -6488.60593200
  atomic energy  EATOM  =     66010.50024545
  ---------------------------------------------------
  free energy    TOTEN  =      -698.67368028 eV

  energy without entropy =     -698.62943361  energy(sigma->0) =     -698.65155694


--------------------------------------------------------------------------------------------------------




--------------------------------------- Iteration      1(   6)  ---------------------------------------


    POTLOK:  cpu time      0.0543: real time      0.0547
    SETDIJ:  cpu time      0.0130: real time      0.0131
    TRIAL :  cpu time     23.1692: real time     23.9958
    CORREC:  cpu time      9.8685: real time     10.5329
    CHARGE:  cpu time      0.5582: real time      0.5621
    --------------------------------------------
      LOOP:  cpu time     33.6642: real time     35.1619

 eigenvalue-minimisations  :     0
 total energy-change (2. order) : 0.5142484E+03  (-0.4053090E+03)
 number of electron     654.0000040 magnetization      70.0000030
 augmentation part      172.3197539 magnetization      46.2876539

 Free energy of the ion-electron system (eV)
  ---------------------------------------------------
  alpha Z        PSCENC =      2611.28229877
  Ewald energy   TEWEN  =    -46502.16707116
  -Hartree energ DENC   =    -18332.60742074
  -exchange      EXHF   =         0.00000000
  -V(xc)+E(xc)   XCENC  =      2772.28400578
  PAW double counting   =     71128.80057076   -71698.85470967
  entropy T*S    EENTRO =        -0.00672294
  eigenvalues    EBANDS =     -6173.61896053
  atomic energy  EATOM  =     66010.50024545
  ---------------------------------------------------
  free energy    TOTEN  =      -184.42528803 eV

  energy without entropy =     -184.41856509  energy(sigma->0) =     -184.42192656


--------------------------------------------------------------------------------------------------------




--------------------------------------- Iteration      1(   7)  ---------------------------------------


    POTLOK:  cpu time      0.0532: real time      0.0536
    SETDIJ:  cpu time      0.0127: real time      0.0128
    TRIAL :  cpu time     23.1623: real time     23.9846
    CORREC:  cpu time      9.7884: real time     10.4605
    CHARGE:  cpu time      0.5561: real time      0.5599
    --------------------------------------------
      LOOP:  cpu time     33.5738: real time     35.0752

 eigenvalue-minimisations  :     0
 total energy-change (2. order) :-0.3263981E+03  (-0.2947454E+02)
 number of electron     654.0000034 magnetization      70.0000024
 augmentation part      169.2250069 magnetization      46.3661438

 Free energy of the ion-electron system (eV)
  ---------------------------------------------------
  alpha Z        PSCENC =      2611.28229877
  Ewald energy   TEWEN  =    -46502.16707116
  -Hartree energ DENC   =    -18974.16396142
  -exchange      EXHF   =         0.00000000
  -V(xc)+E(xc)   XCENC  =      2761.16566255
  PAW double counting   =     77836.70009292   -78626.35396813
  entropy T*S    EENTRO =        -0.01699877
  eigenvalues    EBANDS =     -5627.77994428
  atomic energy  EATOM  =     66010.50024545
  ---------------------------------------------------
  free energy    TOTEN  =      -510.82336825 eV

  energy without entropy =     -510.80636948  energy(sigma->0) =     -510.81486886


--------------------------------------------------------------------------------------------------------




--------------------------------------- Iteration      1(   8)  ---------------------------------------


    POTLOK:  cpu time      0.0519: real time      0.0522
    SETDIJ:  cpu time      0.0128: real time      0.0129
    TRIAL :  cpu time     23.1544: real time     23.9931
    CORREC:  cpu time      9.8166: real time     10.4672
    CHARGE:  cpu time      0.5499: real time      0.5538
    --------------------------------------------
      LOOP:  cpu time     33.5870: real time     35.0829

 eigenvalue-minimisations  :     0
 total energy-change (2. order) :-0.3228808E+02  (-0.1437618E+02)
 number of electron     654.0000039 magnetization      70.0000028
 augmentation part      166.8161600 magnetization      46.2758540

 Free energy of the ion-electron system (eV)
  ---------------------------------------------------
  alpha Z        PSCENC =      2611.28229877
  Ewald energy   TEWEN  =    -46502.16707116
  -Hartree energ DENC   =    -18633.52233889
  -exchange      EXHF   =         0.00000000
  -V(xc)+E(xc)   XCENC  =      2735.58377238
  PAW double counting   =     79240.68039037   -79982.96974434
  entropy T*S    EENTRO =        -0.01593600
  eigenvalues    EBANDS =     -6022.48199820
  atomic energy  EATOM  =     66010.50024545
  ---------------------------------------------------
  free energy    TOTEN  =      -543.11144439 eV

  energy without entropy =     -543.09550839  energy(sigma->0) =     -543.10347639


--------------------------------------------------------------------------------------------------------




--------------------------------------- Iteration      1(   9)  ---------------------------------------


    POTLOK:  cpu time      0.0514: real time      0.0518
    SETDIJ:  cpu time      0.0128: real time      0.0129
    TRIAL :  cpu time     23.1215: real time     23.9361
    CORREC:  cpu time      9.8169: real time     10.4918
    CHARGE:  cpu time      0.5547: real time      0.5583
    --------------------------------------------
      LOOP:  cpu time     33.5584: real time     35.0547

 eigenvalue-minimisations  :     0
 total energy-change (2. order) :-0.1197235E+02  (-0.5814648E+01)
 number of electron     654.0000038 magnetization      70.0000026
 augmentation part      166.2900335 magnetization      46.2215548

 Free energy of the ion-electron system (eV)
  ---------------------------------------------------
  alpha Z        PSCENC =      2611.28229877
  Ewald energy   TEWEN  =    -46502.16707116
  -Hartree energ DENC   =    -18385.85059200
  -exchange      EXHF   =         0.00000000
  -V(xc)+E(xc)   XCENC  =      2720.12059714
  PAW double counting   =     80177.43116736   -80875.55506693
  entropy T*S    EENTRO =        -0.02902134
  eigenvalues    EBANDS =     -6310.82943588
  atomic energy  EATOM  =     66010.50024545
  ---------------------------------------------------
  free energy    TOTEN  =      -555.08379327 eV

  energy without entropy =     -555.05477193  energy(sigma->0) =     -555.06928260


--------------------------------------------------------------------------------------------------------




--------------------------------------- Iteration      1(  10)  ---------------------------------------


    POTLOK:  cpu time      0.0507: real time      0.0511
    SETDIJ:  cpu time      0.0127: real time      0.0129
    TRIAL :  cpu time     23.1372: real time     23.9744
    CORREC:  cpu time      9.7927: real time     10.4760
    CHARGE:  cpu time      0.5428: real time      0.5464
    --------------------------------------------
      LOOP:  cpu time     33.5386: real time     35.0637

 eigenvalue-minimisations  :     0
 total energy-change (2. order) :-0.6370751E+01  (-0.6152776E+01)
 number of electron     654.0000039 magnetization      70.0000027
 augmentation part      166.3667790 magnetization      46.0525123

 Free energy of the ion-electron system (eV)
  ---------------------------------------------------
  alpha Z        PSCENC =      2611.28229877
  Ewald energy   TEWEN  =    -46502.16707116
  -Hartree energ DENC   =    -18397.26520785
  -exchange      EXHF   =         0.00000000
  -V(xc)+E(xc)   XCENC  =      2719.75820016
  PAW double counting   =     80524.85459087   -81206.78923589
  entropy T*S    EENTRO =        -0.03074196
  eigenvalues    EBANDS =     -6321.59934278
  atomic energy  EATOM  =     66010.50024545
  ---------------------------------------------------
  free energy    TOTEN  =      -561.45454378 eV

  energy without entropy =     -561.42380182  energy(sigma->0) =     -561.43917280


--------------------------------------------------------------------------------------------------------




--------------------------------------- Iteration      1(  11)  ---------------------------------------


    POTLOK:  cpu time      0.0498: real time      0.0502
    SETDIJ:  cpu time      0.0127: real time      0.0128
    TRIAL :  cpu time     23.1125: real time     23.9343
    CORREC:  cpu time      9.7709: real time     10.4578
    CHARGE:  cpu time      0.5576: real time      0.5614
    --------------------------------------------
      LOOP:  cpu time     33.5051: real time     35.0201

 eigenvalue-minimisations  :     0
 total energy-change (2. order) :-0.6120608E+01  (-0.3157852E+01)
 number of electron     654.0000041 magnetization      70.0000028
 augmentation part      166.6024220 magnetization      45.8729122

 Free energy of the ion-electron system (eV)
  ---------------------------------------------------
  alpha Z        PSCENC =      2611.28229877
  Ewald energy   TEWEN  =    -46502.16707116
  -Hartree energ DENC   =    -18553.81747433
  -exchange      EXHF   =         0.00000000
  -V(xc)+E(xc)   XCENC  =      2727.16385265
  PAW double counting   =     80889.36896041   -81554.55034168
  entropy T*S    EENTRO =        -0.02284983
  eigenvalues    EBANDS =     -6195.32487978
  atomic energy  EATOM  =     66010.50024545
  ---------------------------------------------------
  free energy    TOTEN  =      -567.57515165 eV

  energy without entropy =     -567.55230182  energy(sigma->0) =     -567.56372673


--------------------------------------------------------------------------------------------------------




--------------------------------------- Iteration      1(  12)  ---------------------------------------


    POTLOK:  cpu time      0.0498: real time      0.0502
    SETDIJ:  cpu time      0.0128: real time      0.0129
    TRIAL :  cpu time     23.1322: real time     23.9597
    CORREC:  cpu time      9.7824: real time     10.4411
    CHARGE:  cpu time      0.5859: real time      0.5899
    --------------------------------------------
      LOOP:  cpu time     33.5644: real time     35.0575

 eigenvalue-minimisations  :     0
 total energy-change (2. order) :-0.6815017E+00  (-0.4471882E+01)
 number of electron     654.0000037 magnetization      70.0000024
 augmentation part      166.7680949 magnetization      45.8318134

 Free energy of the ion-electron system (eV)
  ---------------------------------------------------
  alpha Z        PSCENC =      2611.28229877
  Ewald energy   TEWEN  =    -46502.16707116
  -Hartree energ DENC   =    -18635.33811529
  -exchange      EXHF   =         0.00000000
  -V(xc)+E(xc)   XCENC  =      2730.34623207
  PAW double counting   =     80529.12889483   -81190.68763346
  entropy T*S    EENTRO =        -0.01976405
  eigenvalues    EBANDS =     -6121.29865470
  atomic energy  EATOM  =     66010.50024545
  ---------------------------------------------------
  free energy    TOTEN  =      -568.25665333 eV

  energy without entropy =     -568.23688928  energy(sigma->0) =     -568.24677130


--------------------------------------------------------------------------------------------------------




--------------------------------------- Iteration      1(  13)  ---------------------------------------


    POTLOK:  cpu time      0.0504: real time      0.0508
    SETDIJ:  cpu time      0.0128: real time      0.0129
    TRIAL :  cpu time     23.1092: real time     23.9369
    CORREC:  cpu time      9.7683: real time     10.4692
    CHARGE:  cpu time      0.5481: real time      0.5518
    --------------------------------------------
      LOOP:  cpu time     33.4901: real time     35.0248

 eigenvalue-minimisations  :     0
 total energy-change (2. order) :-0.5036209E+00  (-0.4796917E+01)
 number of electron     654.0000041 magnetization      70.0000028
 augmentation part      166.8256788 magnetization      45.7508236

 Free energy of the ion-electron system (eV)
  ---------------------------------------------------
  alpha Z        PSCENC =      2611.28229877
  Ewald energy   TEWEN  =    -46502.16707116
  -Hartree energ DENC   =    -18633.05998667
  -exchange      EXHF   =         0.00000000
  -V(xc)+E(xc)   XCENC  =      2730.29187068
  PAW double counting   =     79765.09318786   -80427.35864962
  entropy T*S    EENTRO =        -0.02721550
  eigenvalues    EBANDS =     -6123.32240544
  atomic energy  EATOM  =     66010.50024545
  ---------------------------------------------------
  free energy    TOTEN  =      -568.76027419 eV

  energy without entropy =     -568.73305869  energy(sigma->0) =     -568.74666644


--------------------------------------------------------------------------------------------------------




--------------------------------------- Iteration      1(  14)  ---------------------------------------


    POTLOK:  cpu time      0.0501: real time      0.0505
    SETDIJ:  cpu time      0.0127: real time      0.0128
    TRIAL :  cpu time     23.1042: real time     23.9335
    CORREC:  cpu time      9.7980: real time     10.4426
    CHARGE:  cpu time      0.5598: real time      0.5635
    --------------------------------------------
      LOOP:  cpu time     33.5262: real time     35.0064

 eigenvalue-minimisations  :     0
 total energy-change (2. order) :-0.2152534E+01  (-0.1478702E+01)
 number of electron     654.0000040 magnetization      70.0000027
 augmentation part      166.9669441 magnetization      45.6739925

 Free energy of the ion-electron system (eV)
  ---------------------------------------------------
  alpha Z        PSCENC =      2611.28229877
  Ewald energy   TEWEN  =    -46502.16707116
  -Hartree energ DENC   =    -18633.04228303
  -exchange      EXHF   =         0.00000000
  -V(xc)+E(xc)   XCENC  =      2730.08389020
  PAW double counting   =     79310.34584295   -79972.48568734
  entropy T*S    EENTRO =        -0.03257430
  eigenvalues    EBANDS =     -6125.40282888
  atomic energy  EATOM  =     66010.50024545
  ---------------------------------------------------
  free energy    TOTEN  =      -570.91280857 eV

  energy without entropy =     -570.88023427  energy(sigma->0) =     -570.89652142


--------------------------------------------------------------------------------------------------------




--------------------------------------- Iteration      1(  15)  ---------------------------------------


    POTLOK:  cpu time      0.0496: real time      0.0500
    SETDIJ:  cpu time      0.0129: real time      0.0130
    TRIAL :  cpu time     23.1802: real time     24.0110
    CORREC:  cpu time      9.7783: real time     10.4666
    CHARGE:  cpu time      0.5457: real time      0.5495
    --------------------------------------------
      LOOP:  cpu time     33.5683: real time     35.0938

 eigenvalue-minimisations  :     0
 total energy-change (2. order) :-0.2133221E+01  (-0.7845309E+00)
 number of electron     654.0000038 magnetization      70.0000024
 augmentation part      167.0225228 magnetization      45.6310676

 Free energy of the ion-electron system (eV)
  ---------------------------------------------------
  alpha Z        PSCENC =      2611.28229877
  Ewald energy   TEWEN  =    -46502.16707116
  -Hartree energ DENC   =    -18636.08565898
  -exchange      EXHF   =         0.00000000
  -V(xc)+E(xc)   XCENC  =      2730.02279887
  PAW double counting   =     78536.87782523   -79199.33256037
  entropy T*S    EENTRO =        -0.02628030
  eigenvalues    EBANDS =     -6124.11133318
  atomic energy  EATOM  =     66010.50024545
  ---------------------------------------------------
  free energy    TOTEN  =      -573.04602969 eV

  energy without entropy =     -573.01974939  energy(sigma->0) =     -573.03288954


--------------------------------------------------------------------------------------------------------




--------------------------------------- Iteration      1(  16)  ---------------------------------------


    POTLOK:  cpu time      0.0503: real time      0.0507
    SETDIJ:  cpu time      0.0128: real time      0.0129
    TRIAL :  cpu time     23.0876: real time     23.9081
    CORREC:  cpu time      9.7758: real time     10.4573
    CHARGE:  cpu time      0.5568: real time      0.5606
    --------------------------------------------
      LOOP:  cpu time     33.4847: real time     34.9933

 eigenvalue-minimisations  :     0
 total energy-change (2. order) : 0.4391961E+00  (-0.3428089E+01)
 number of electron     654.0000040 magnetization      70.0000027
 augmentation part      167.0529613 magnetization      45.6055732

 Free energy of the ion-electron system (eV)
  ---------------------------------------------------
  alpha Z        PSCENC =      2611.28229877
  Ewald energy   TEWEN  =    -46502.16707116
  -Hartree energ DENC   =    -18637.14007487
  -exchange      EXHF   =         0.00000000
  -V(xc)+E(xc)   XCENC  =      2729.99109904
  PAW double counting   =     78183.00816517   -78845.57464095
  entropy T*S    EENTRO =        -0.02385323
  eigenvalues    EBANDS =     -6122.48057470
  atomic energy  EATOM  =     66010.50024545
  ---------------------------------------------------
  free energy    TOTEN  =      -572.60683355 eV

  energy without entropy =     -572.58298032  energy(sigma->0) =     -572.59490693


--------------------------------------------------------------------------------------------------------




--------------------------------------- Iteration      1(  17)  ---------------------------------------


    POTLOK:  cpu time      0.0504: real time      0.0508
    SETDIJ:  cpu time      0.0127: real time      0.0128
    TRIAL :  cpu time     23.1547: real time     23.9672
    CORREC:  cpu time      9.7726: real time     10.4711
    CHARGE:  cpu time      0.5612: real time      0.5651
    --------------------------------------------
      LOOP:  cpu time     33.5531: real time     35.0704

 eigenvalue-minimisations  :     0
 total energy-change (2. order) :-0.2538318E+00  (-0.3909966E+00)
 number of electron     654.0000040 magnetization      70.0000027
 augmentation part      167.0764167 magnetization      45.5931625

 Free energy of the ion-electron system (eV)
  ---------------------------------------------------
  alpha Z        PSCENC =      2611.28229877
  Ewald energy   TEWEN  =    -46502.16707116
  -Hartree energ DENC   =    -18635.26538517
  -exchange      EXHF   =         0.00000000
  -V(xc)+E(xc)   XCENC  =      2730.02877551
  PAW double counting   =     77980.33859456   -78642.82111632
  entropy T*S    EENTRO =        -0.02167438
  eigenvalues    EBANDS =     -6124.73315376
  atomic energy  EATOM  =     66010.50024545
  ---------------------------------------------------
  free energy    TOTEN  =      -572.86066536 eV

  energy without entropy =     -572.83899098  energy(sigma->0) =     -572.84982817


--------------------------------------------------------------------------------------------------------




--------------------------------------- Iteration      1(  18)  ---------------------------------------


    POTLOK:  cpu time      0.0495: real time      0.0499
    SETDIJ:  cpu time      0.0128: real time      0.0129
    TRIAL :  cpu time     23.0706: real time     23.9153
    CORREC:  cpu time      9.7419: real time     10.4379
    CHARGE:  cpu time      0.5627: real time      0.5666
    --------------------------------------------
      LOOP:  cpu time     33.4387: real time     34.9859

 eigenvalue-minimisations  :     0
 total energy-change (2. order) :-0.6664626E+00  (-0.1933407E+00)
 number of electron     654.0000040 magnetization      70.0000026
 augmentation part      167.0828425 magnetization      45.5825320

 Free energy of the ion-electron system (eV)
  ---------------------------------------------------
  alpha Z        PSCENC =      2611.28229877
  Ewald energy   TEWEN  =    -46502.16707116
  -Hartree energ DENC   =    -18635.78724894
  -exchange      EXHF   =         0.00000000
  -V(xc)+E(xc)   XCENC  =      2730.05399660
  PAW double counting   =     77832.60517738   -78495.04254237
  entropy T*S    EENTRO =        -0.02559267
  eigenvalues    EBANDS =     -6124.95030929
  atomic energy  EATOM  =     66010.50024545
  ---------------------------------------------------
  free energy    TOTEN  =      -573.52712795 eV

  energy without entropy =     -573.50153528  energy(sigma->0) =     -573.51433161


--------------------------------------------------------------------------------------------------------




--------------------------------------- Iteration      1(  19)  ---------------------------------------


    POTLOK:  cpu time      0.0495: real time      0.0498
    SETDIJ:  cpu time      0.0127: real time      0.0128
    TRIAL :  cpu time     23.0545: real time     23.8925
    CORREC:  cpu time      9.7546: real time     10.4080
    CHARGE:  cpu time      0.5431: real time      0.5467
    --------------------------------------------
      LOOP:  cpu time     33.4161: real time     34.9134

 eigenvalue-minimisations  :     0
 total energy-change (2. order) :-0.4135433E+00  (-0.9931394E-01)
 number of electron     654.0000039 magnetization      70.0000026
 augmentation part      167.0881230 magnetization      45.5662146

 Free energy of the ion-electron system (eV)
  ---------------------------------------------------
  alpha Z        PSCENC =      2611.28229877
  Ewald energy   TEWEN  =    -46502.16707116
  -Hartree energ DENC   =    -18636.68805819
  -exchange      EXHF   =         0.00000000
  -V(xc)+E(xc)   XCENC  =      2730.03439595
  PAW double counting   =     77763.16082246   -78425.53231326
  entropy T*S    EENTRO =        -0.02663274
  eigenvalues    EBANDS =     -6124.50539856
  atomic energy  EATOM  =     66010.50024545
  ---------------------------------------------------
  free energy    TOTEN  =      -573.94067122 eV

  energy without entropy =     -573.91403848  energy(sigma->0) =     -573.92735485


--------------------------------------------------------------------------------------------------------




--------------------------------------- Iteration      1(  20)  ---------------------------------------


    POTLOK:  cpu time      0.0503: real time      0.0507
    SETDIJ:  cpu time      0.0128: real time      0.0129
    TRIAL :  cpu time     23.0847: real time     23.9440
    CORREC:  cpu time      9.7776: real time     10.4418
    CHARGE:  cpu time      0.5493: real time      0.5532
    --------------------------------------------
      LOOP:  cpu time     33.4760: real time     35.0062

 eigenvalue-minimisations  :     0
 total energy-change (2. order) :-0.1068159E+00  (-0.3928787E+00)
 number of electron     654.0000039 magnetization      70.0000026
 augmentation part      167.1455321 magnetization      45.4006547

 Free energy of the ion-electron system (eV)
  ---------------------------------------------------
  alpha Z        PSCENC =      2611.28229877
  Ewald energy   TEWEN  =    -46502.16707116
  -Hartree energ DENC   =    -18637.93444882
  -exchange      EXHF   =         0.00000000
  -V(xc)+E(xc)   XCENC  =      2730.01177872
  PAW double counting   =     77676.13730875   -78338.39240410
  entropy T*S    EENTRO =        -0.01430763
  eigenvalues    EBANDS =     -6123.45856198
  atomic energy  EATOM  =     66010.50024545
  ---------------------------------------------------
  free energy    TOTEN  =      -574.04748712 eV

  energy without entropy =     -574.03317949  energy(sigma->0) =     -574.04033330


--------------------------------------------------------------------------------------------------------




--------------------------------------- Iteration      1(  21)  ---------------------------------------


    POTLOK:  cpu time      0.0507: real time      0.0511
    SETDIJ:  cpu time      0.0128: real time      0.0130
    TRIAL :  cpu time     23.0675: real time     23.9097
    CORREC:  cpu time      9.7486: real time     10.4465
    CHARGE:  cpu time      0.5578: real time      0.5616
    --------------------------------------------
      LOOP:  cpu time     33.4389: real time     34.9856

 eigenvalue-minimisations  :     0
 total energy-change (2. order) :-0.3799893E+00  (-0.2113789E+00)
 number of electron     654.0000039 magnetization      70.0000026
 augmentation part      167.1829918 magnetization      45.3243839

 Free energy of the ion-electron system (eV)
  ---------------------------------------------------
  alpha Z        PSCENC =      2611.28229877
  Ewald energy   TEWEN  =    -46502.16707116
  -Hartree energ DENC   =    -18643.16186389
  -exchange      EXHF   =         0.00000000
  -V(xc)+E(xc)   XCENC  =      2729.90014977
  PAW double counting   =     76759.01407552   -77419.75335561
  entropy T*S    EENTRO =        -0.00383934
  eigenvalues    EBANDS =     -6120.02764763
  atomic energy  EATOM  =     66010.50024545
  ---------------------------------------------------
  free energy    TOTEN  =      -574.42747642 eV

  energy without entropy =     -574.42363708  energy(sigma->0) =     -574.42555675


--------------------------------------------------------------------------------------------------------




--------------------------------------- Iteration      1(  22)  ---------------------------------------


    POTLOK:  cpu time      0.0504: real time      0.0507
    SETDIJ:  cpu time      0.0129: real time      0.0130
    TRIAL :  cpu time     23.1337: real time     23.9503
    CORREC:  cpu time      9.7684: real time     10.4411
    CHARGE:  cpu time      0.5526: real time      0.5564
    --------------------------------------------
      LOOP:  cpu time     33.5192: real time     35.0152

 eigenvalue-minimisations  :     0
 total energy-change (2. order) :-0.1786217E+00  (-0.7001356E-01)
 number of electron     654.0000039 magnetization      70.0000026
 augmentation part      167.1640813 magnetization      45.3251387

 Free energy of the ion-electron system (eV)
  ---------------------------------------------------
  alpha Z        PSCENC =      2611.28229877
  Ewald energy   TEWEN  =    -46502.16707116
  -Hartree energ DENC   =    -18644.08625529
  -exchange      EXHF   =         0.00000000
  -V(xc)+E(xc)   XCENC  =      2729.83240641
  PAW double counting   =     76320.52613289   -76980.69478679
  entropy T*S    EENTRO =        -0.00299910
  eigenvalues    EBANDS =     -6119.79522901
  atomic energy  EATOM  =     66010.50024545
  ---------------------------------------------------
  free energy    TOTEN  =      -574.60609808 eV

  energy without entropy =     -574.60309898  energy(sigma->0) =     -574.60459853


--------------------------------------------------------------------------------------------------------




--------------------------------------- Iteration      1(  23)  ---------------------------------------


    POTLOK:  cpu time      0.0502: real time      0.0505
    SETDIJ:  cpu time      0.0127: real time      0.0128
    TRIAL :  cpu time     23.1211: real time     23.9481
    CORREC:  cpu time      9.7765: real time     10.4487
    CHARGE:  cpu time      0.5513: real time      0.5550
    --------------------------------------------
      LOOP:  cpu time     33.5132: real time     35.0187

 eigenvalue-minimisations  :     0
 total energy-change (2. order) :-0.6990516E-01  (-0.5971597E-01)
 number of electron     654.0000039 magnetization      70.0000026
 augmentation part      167.0481140 magnetization      45.3138637

 Free energy of the ion-electron system (eV)
  ---------------------------------------------------
  alpha Z        PSCENC =      2611.28229877
  Ewald energy   TEWEN  =    -46502.16707116
  -Hartree energ DENC   =    -18645.87772040
  -exchange      EXHF   =         0.00000000
  -V(xc)+E(xc)   XCENC  =      2729.71412295
  PAW double counting   =     76395.68051900   -77055.71110321
  entropy T*S    EENTRO =        -0.00139318
  eigenvalues    EBANDS =     -6118.09429554
  atomic energy  EATOM  =     66010.50024545
  ---------------------------------------------------
  free energy    TOTEN  =      -574.67600325 eV

  energy without entropy =     -574.67461006  energy(sigma->0) =     -574.67530665


--------------------------------------------------------------------------------------------------------




[...]
   -.546E+01 -.967E+02 0.529E+02   0.619E+01 0.998E+02 -.368E+02   -.724E+00 -.308E+01 -.161E+02
   -.955E+02 -.968E+02 -.746E+00   0.989E+02 0.101E+03 0.465E+01   -.335E+01 -.396E+01 -.391E+01
   0.305E+02 0.911E+02 -.106E+03   -.333E+02 -.935E+02 0.110E+03   0.274E+01 0.244E+01 -.368E+01
   0.918E+02 -.185E+03 -.163E+02   -.937E+02 0.195E+03 0.177E+02   0.192E+01 -.989E+01 -.139E+01
   -.134E+01 0.844E+02 0.427E+02   0.138E+01 -.978E+02 -.362E+02   -.526E-01 0.134E+02 -.650E+01
   0.592E+02 0.144E+03 0.629E+02   -.520E+02 -.151E+03 -.595E+02   -.722E+01 0.713E+01 -.331E+01
   -.387E+02 -.355E+02 -.144E+02   0.264E+02 0.328E+02 0.849E+01   0.123E+02 0.268E+01 0.590E+01
   -.127E+02 0.103E+03 -.964E+01   0.126E+02 -.933E+02 0.164E+02   0.535E-01 -.973E+01 -.672E+01
   -.273E+02 0.125E+03 0.110E+03   0.417E+02 -.139E+03 -.112E+03   -.144E+02 0.134E+02 0.231E+01
   0.637E+02 0.958E+02 0.294E+02   -.640E+02 -.100E+03 -.315E+02   0.292E+00 0.426E+01 0.210E+01
   -.612E+02 0.102E+03 -.179E+02   0.491E+02 -.993E+02 0.231E+02   0.120E+02 -.299E+01 -.517E+01
   -.364E+02 -.195E+02 -.420E+02   0.256E+02 0.310E+02 0.420E+02   0.108E+02 -.116E+02 0.490E-01
   -.103E+03 0.970E+00 -.234E+02   0.106E+03 -.262E+01 0.265E+02   -.341E+01 0.167E+01 -.309E+01
   -.161E+02 -.283E+02 -.214E+03   0.177E+02 0.291E+02 0.219E+03   -.163E+01 -.796E+00 -.568E+01
   0.139E+03 -.203E+02 -.333E+02   -.144E+03 0.214E+02 0.333E+02   0.524E+01 -.108E+01 0.591E-02
   -.636E+02 0.606E+02 -.270E+02   0.544E+02 -.709E+02 0.255E+02   0.919E+01 0.103E+02 0.153E+01
   0.389E+02 -.109E+03 0.176E+02   -.417E+02 0.100E+03 -.240E+02   0.275E+01 0.909E+01 0.639E+01
   0.219E+02 -.862E+02 -.768E+02   -.230E+02 0.101E+03 0.703E+02   0.116E+01 -.143E+02 0.645E+01
   0.975E+02 -.776E+02 0.269E+02   -.101E+03 0.815E+02 -.301E+02   0.332E+01 -.393E+01 0.323E+01
   -.982E+02 -.165E+03 0.516E+02   0.938E+02 0.173E+03 -.588E+02   0.444E+01 -.860E+01 0.719E+01
   -.107E+03 0.585E+02 -.808E+02   0.109E+03 -.617E+02 0.850E+02   -.274E+01 0.309E+01 -.421E+01
   -.309E+02 -.190E+02 -.678E+02   0.421E+02 0.561E+01 0.657E+02   -.112E+02 0.133E+02 0.218E+01
   -.565E+01 0.105E+03 0.453E+02   0.513E+01 -.106E+03 -.475E+02   0.518E+00 0.132E+01 0.226E+01
   0.423E+02 0.101E+03 0.441E+02   -.427E+02 -.104E+03 -.316E+02   0.411E+00 0.294E+01 -.125E+02
   -.284E+02 -.142E+03 -.726E+02   0.285E+02 0.146E+03 0.646E+02   -.108E+00 -.450E+01 0.793E+01
   -.869E+02 0.111E+03 0.479E+02   0.907E+02 -.115E+03 -.506E+02   -.384E+01 0.407E+01 0.269E+01
   0.885E+02 -.175E+03 0.273E+03   -.899E+02 0.186E+03 -.281E+03   0.135E+01 -.109E+02 0.836E+01
   0.964E+02 -.122E+03 -.279E+02   -.995E+02 0.126E+03 0.301E+02   0.306E+01 -.402E+01 -.226E+01
   -.908E+02 -.977E+02 0.204E+02   0.935E+02 0.101E+03 -.225E+02   -.269E+01 -.371E+01 0.208E+01
   -.837E+02 0.198E+03 -.236E+02   0.853E+02 -.207E+03 0.234E+02   -.158E+01 0.903E+01 0.277E+00
 -----------------------------------------------------------------------------------------------
   -.379E+01 0.343E+00 0.830E+01   0.313E-12 -.199E-12 0.831E-12   0.379E+01 -.330E+00 -.832E+01
 
 
 POSITION                                       TOTAL-FORCE (eV/Angst)
 -----------------------------------------------------------------------------------
      2.71001      2.27695      3.58966         0.008810      0.008028     -0.005114
      0.71566      7.18449      7.17926        -0.002852     -0.006907     -0.001729
      3.93621      7.08412      7.16166        -0.004624      0.010093     -0.002307
      7.02754      2.73357      9.43877        -0.001370      0.002561     -0.012026
      8.56009      7.32437      1.70819         0.002134      0.000093     -0.012091
      3.95877      2.28245      9.48441        -0.007692      0.011459     -0.004681
      0.73752      2.27583      9.54595         0.006572      0.003885     -0.001592
      2.28612      6.89072      1.77780         0.008731     -0.014518     -0.016216
      5.35395      7.29415      1.74200         0.015556      0.001712      0.013219
      7.02129      7.39768      7.68471         0.003262     -0.002234      0.013962
      8.54332      2.41371      4.03999        -0.000454      0.009387     -0.009196
      8.49572      5.80076      4.30246         0.014790      0.005261     -0.005067
      8.70492      0.80908      1.48617         0.014118     -0.001908     -0.002062
      0.79742      4.05095      1.15079         0.002512      0.021736     -0.004641
      3.89996      3.86682      6.82964        -0.006178      0.008985     -0.014400
      5.54553      0.89021      6.83936         0.003824      0.005749     -0.005304
      5.60002      0.99077      1.67425        -0.010342      0.006352      0.007851
      8.51164      0.74143      6.93850         0.010371     -0.022186     -0.003792
      0.81677      3.85372      6.90604        -0.004096     -0.008349     -0.011527
      5.44142      5.59059     10.02120        -0.006783      0.010981     -0.006107
      3.83612      8.71038      9.70464         0.007979     -0.004807     -0.005653
      0.80376      8.86943      4.34689         0.002080     -0.009321     -0.005560
      8.62289      5.58758     10.09640         0.005949      0.018279      0.006862
      0.84109      8.68925      9.78265        -0.002652     -0.009307     -0.000916
      3.73679      8.74400      4.33110         0.007910     -0.002238      0.010455
      5.41004      5.47825      4.27338         0.002215     -0.007621     -0.004745
      3.97971      4.06487      1.05979         0.009935     -0.004618     -0.004098
      7.05323      4.31428      6.69804        -0.006954     -0.011007     -0.000378
      2.33669      5.44617      9.81939         0.017295      0.009539      0.009264
      6.90976      8.94766      4.51489         0.002987     -0.006270      0.006269
      2.42050      0.46012      1.02982        -0.017472      0.011950      0.007230
      7.00015      9.27346     10.26254         0.008611     -0.017900      0.011494
      2.35661      0.61531      6.83406        -0.003315     -0.006861     -0.013494
      7.02798      4.19793      1.33525         0.004943     -0.014145      0.012007
      2.23178      5.26824      4.45653         0.014185     -0.006678      0.016463
      0.65750      5.91546      0.42940        -0.009444     -0.016232     -0.009430
      2.26399      8.21749      5.53543         0.006204     -0.002728      0.006996
      7.10385      0.35836      8.19234        -0.004131     -0.006401      0.002747
      1.02443      3.72107      4.80709         0.002536     -0.001803     -0.007071
      5.59457      0.95014     10.57637        -0.007832     -0.009262      0.004756
      3.62533      1.00207      5.35604         0.001567     -0.004106      0.007167
      8.45993      5.69642      6.42698        -0.004834      0.009382      0.000620
      8.69191      3.79405     10.87957        -0.002742     -0.009785     -0.001641
      7.09129      4.18706      4.74558         0.006401      0.002138     -0.007186
      7.03969      5.17394      8.95661         0.004941      0.003328     -0.014659
      8.52189      4.74730      2.50809        -0.005417     -0.002104     -0.013055
      3.81092      4.92012      8.63468        -0.009415     -0.002158     -0.000828
      2.32294      9.49177      2.99677        -0.008156      0.014635      0.000047
      4.21717      0.21268      8.01945        -0.012163      0.001847      0.018488
      7.30591      1.86783      2.17106        -0.000096      0.016268      0.011940
      5.56001      8.58539      5.97950         0.000798      0.013679      0.001936
      8.33874      1.03916     10.64093        -0.004600     -0.004565     -0.009521
      5.13782      9.32314      3.18945        -0.004706     -0.005226     -0.001978
      2.26927      5.48815      6.42243         0.009914      0.001043     -0.010129
      5.34987      2.65948      7.61275        -0.007088      0.002210     -0.000989
      4.18179      2.32771      1.79151         0.007318      0.000814     -0.013546
      4.00530      5.85778      0.28464         0.020135     -0.014544      0.007942
      2.36696      3.60995     10.66526        -0.014450     -0.000625     -0.006554
      8.35325      8.52331      6.02119        -0.006859      0.003964      0.005010
      0.81902      4.80937      8.70123        -0.011728      0.015396     -0.015167
      2.37779      2.50784      7.55270        -0.014698     -0.000175      0.010489
      3.77809      4.09022      4.74005         0.005114     -0.000109     -0.003075
      3.94818      6.91830      3.67991         0.006693     -0.008566      0.017143
      5.50859      4.91406      2.37355        -0.008709     -0.003838     -0.005685
      5.62831      5.65246      6.42582        -0.006681     -0.003428      0.011719
      0.40738      0.06385      8.12517        -0.011907      0.019519     -0.002695
      2.39296      4.47990      2.20558        -0.006660      0.010152      0.008504
      8.83362      9.59377      3.23420        -0.009312      0.010098      0.006977
      0.74170      8.97345      0.75508         0.017697      0.010134     -0.003954
      6.93570      7.07513      3.71401         0.014456      0.004940      0.003374
      7.04657      6.01327      0.46549         0.002092      0.005046      0.016442
      8.82590      7.30584      9.29672        -0.013887      0.000371      0.000369
      0.70663      0.95064      5.51881        -0.001697      0.012681      0.016566
      0.71905      2.26994      1.86693         0.001491     -0.015423     -0.008454
      3.55019      8.51656      0.63380         0.013614     -0.008141      0.002599
      2.34726      7.63349      8.71551        -0.000177     -0.001638     -0.003992
      6.95492      8.94832      1.05460         0.004882     -0.007764     -0.012238
      2.32132      0.58370     10.11316        -0.012119     -0.004848     -0.011978
      0.54116      7.11730      3.56414        -0.001145     -0.003829     -0.011484
      7.10873      1.34212      5.72207        -0.008059      0.005264      0.006972
      8.79486      2.52805      7.61357        -0.009359     -0.003051      0.024132
      5.24414      7.33887      9.22313         0.009946     -0.010627      0.002307
      5.36840      3.78675     10.74260        -0.017713     -0.001109      0.017686
 -----------------------------------------------------------------------------------
    total drift:                                0.001575      0.013306     -0.015536


--------------------------------------------------------------------------------------------------------



  FREE ENERGIE OF THE ION-ELECTRON SYSTEM (eV)
  ---------------------------------------------------
  free  energy   TOTEN  =      -574.78463434 eV

  energy  without entropy=     -574.78410003  energy(sigma->0) =     -574.78436718
 


--------------------------------------------------------------------------------------------------------


    POTLOK:  cpu time      0.0662: real time      0.0666


--------------------------------------------------------------------------------------------------------




--------------------------------------------------------------------------------------------------------


  
 reached required accuracy - stopping structural energy minimisation
     LOOP+:  cpu time   1419.1621: real time   1477.9736
    4ORBIT:  cpu time      0.0000: real time      0.0000



 total charge

# of ion       s       p       d       tot
------------------------------------------
    1        2.029   5.865   0.251   8.145
    2        2.032   5.873   0.282   8.187
    3        2.030   5.869   0.274   8.173
    4        2.031   5.869   0.269   8.169
    5        2.034   5.874   0.289   8.198
    6        2.032   5.873   0.277   8.182
    7        2.032   5.871   0.275   8.177
    8        2.032   5.868   0.272   8.172
    9        2.031   5.871   0.268   8.170
   10        2.031   5.868   0.267   8.167
   11        2.026   5.865   0.245   8.137
   12        0.229   6.216   4.947  11.393
   13        0.276   6.296   4.914  11.486
   14        0.270   6.287   4.883  11.440
   15        0.218   6.200   4.955  11.372
   16        0.278   6.300   4.898  11.475
   17        0.241   6.235   4.927  11.403
   18        0.318   6.387   4.893  11.597
   19        0.227   6.213   4.946  11.386
   20        0.276   6.299   4.889  11.464
   21        0.231   6.223   4.943  11.398
   22        0.285   6.311   4.907  11.503
   23        0.273   6.299   4.889  11.461
   24        0.240   6.233   4.941  11.413
   25        0.281   6.303   4.908  11.492
   26        0.220   6.209   4.940  11.368
   27        0.274   6.302   4.892  11.468
   28        1.483   1.468   0.246   3.196
   29        1.506   1.424   0.250   3.179
   30        1.531   1.340   0.233   3.104
   31        1.482   1.445   0.251   3.178
   32        1.453   1.507   0.258   3.219
   33        1.522   1.371   0.240   3.133
   34        1.503   1.421   0.248   3.172
   35        1.481   1.476   0.248   3.205
   36        1.566   3.437   0.000   5.003
   37        1.566   3.443   0.000   5.009
   38        1.574   3.434   0.000   5.007
   39        1.573   3.446   0.000   5.019
   40        1.577   3.439   0.000   5.016
   41        1.575   3.430   0.000   5.006
   42        1.574   3.455   0.000   5.029
   43        1.567   3.438   0.000   5.005
   44        1.581   3.448   0.000   5.030
   45        1.566   3.436   0.000   5.002
   46        1.574   3.447   0.000   5.021
   47        1.574   3.455   0.000   5.030
   48        1.572   3.449   0.000   5.021
   49        1.574   3.441   0.000   5.015
   50        1.573   3.443   0.000   5.016
   51        1.572   3.434   0.000   5.006
   52        1.575   3.457   0.000   5.032
   53        1.572   3.440   0.000   5.012
   54        1.579   3.455   0.000   5.034
   55        1.564   3.447   0.000   5.011
   56        1.564   3.446   0.000   5.010
   57        1.569   3.437   0.000   5.006
   58        1.572   3.446   0.000   5.018
   59        1.571   3.426   0.000   4.997
   60        1.574   3.452   0.000   5.027
   61        1.571   3.449   0.000   5.019
   62        1.575   3.457   0.000   5.032
   63        1.565   3.421   0.000   4.986
   64        1.575   3.474   0.000   5.049
   65        1.574   3.455   0.000   5.029
   66        1.574   3.447   0.000   5.021
   67        1.566   3.438   0.000   5.003
   68        1.573   3.448   0.000   5.021
   69        1.572   3.437   0.000   5.009
   70        1.571   3.439   0.000   5.010
   71        1.573   3.448   0.000   5.020
   72        1.562   3.448   0.000   5.009
   73        1.571   3.413   0.000   4.983
   74        1.566   3.410   0.000   4.977
   75        1.575   3.452   0.000   5.027
   76        1.567   3.446   0.000   5.013
   77        1.575   3.453   0.000   5.028
   78        1.571   3.452   0.000   5.023
   79        1.564   3.447   0.000   5.010
   80        1.571   3.429   0.000   5.000
   81        1.567   3.434   0.000   5.001
   82        1.561   3.448   0.000   5.009
   83        1.567   3.446   0.000   5.013
--------------------------------------------------
tot        113.845 341.598  83.615 539.057



 magnetization (x)

# of ion       s       p       d       tot
------------------------------------------
    1        0.003   0.002   0.014   0.019
    2        0.002   0.002   0.012   0.015
    3        0.002   0.002   0.013   0.016
    4        0.003   0.002   0.013   0.018
    5        0.002   0.002   0.012   0.016
    6        0.002   0.002   0.011   0.015
    7        0.002   0.002   0.011   0.015
    8        0.003   0.002   0.012   0.016
    9        0.002   0.002   0.009   0.013
   10        0.003   0.003   0.015   0.021
   11        0.002   0.002   0.012   0.016
   12        0.031   0.039   4.224   4.294
   13        0.024   0.032   3.653   3.709
   14        0.033   0.030   3.695   3.758
   15        0.031   0.035   4.301   4.367
   16        0.031   0.031   3.652   3.715
   17        0.030   0.044   4.087   4.162
   18        0.018   0.029   3.018   3.065
   19        0.030   0.032   4.220   4.283
   20        0.033   0.030   3.660   3.723
   21        0.027   0.035   4.163   4.225
   22        0.031   0.032   3.586   3.649
   23        0.030   0.030   3.671   3.731
   24        0.030   0.039   4.099   4.167
   25        0.031   0.032   3.639   3.701
   26        0.027   0.029   4.252   4.308
   27        0.030   0.031   3.653   3.713
   28        0.002   0.052   0.005   0.058
   29        0.000   0.039   0.003   0.043
   30        0.002   0.042   0.004   0.047
   31        0.003   0.056   0.007   0.066
   32        0.002   0.038   0.005   0.046
   33        0.008   0.046   0.004   0.057
   34       -0.000   0.044   0.005   0.049
   35        0.002   0.048   0.005   0.055
   36        0.006   0.041   0.000   0.047
   37        0.003   0.043   0.000   0.047
   38        0.011   0.059   0.000   0.071
   39        0.008   0.056   0.000   0.064
   40        0.009   0.048   0.000   0.057
   41        0.008   0.037   0.000   0.045
   42        0.010   0.054   0.000   0.064
   43        0.005   0.026   0.000   0.031
   44        0.012   0.035   0.000   0.046
   45        0.006   0.021   0.000   0.027
   46        0.014   0.067   0.000   0.080
   47        0.013   0.066   0.000   0.080
   48        0.017   0.111   0.000   0.128
   49        0.010   0.039   0.000   0.048
   50        0.008   0.065   0.000   0.074
   51        0.007   0.041   0.000   0.048
   52        0.006   0.039   0.000   0.045
   53        0.008   0.043   0.000   0.052
   54        0.011   0.036   0.000   0.047
   55        0.006   0.062   0.000   0.067
   56        0.004   0.072   0.000   0.076
   57        0.005   0.033   0.000   0.038
   58        0.011   0.082   0.000   0.093
   59        0.008   0.048   0.000   0.056
   60        0.013   0.060   0.000   0.072
   61        0.013   0.071   0.000   0.084
   62        0.010   0.052   0.000   0.062
   63        0.008   0.043   0.000   0.052
   64        0.013   0.063   0.000   0.076
   65        0.009   0.047   0.000   0.056
   66        0.009   0.077   0.000   0.087
   67        0.005   0.023   0.000   0.028
   68        0.007   0.033   0.000   0.040
   69        0.008   0.017   0.000   0.025
   70        0.013   0.069   0.000   0.081
   71        0.012   0.088   0.000   0.100
   72        0.005   0.050   0.000   0.055
   73        0.005   0.009   0.000   0.014
   74        0.009   0.074   0.000   0.083
   75        0.007   0.047   0.000   0.054
   76        0.011   0.118   0.000   0.129
   77        0.010   0.040   0.000   0.050
   78        0.009   0.048   0.000   0.057
   79        0.006   0.060   0.000   0.066
   80        0.004   0.058   0.000   0.063
   81        0.007   0.040   0.000   0.048
   82        0.006   0.057   0.000   0.062
   83        0.005   0.038   0.000   0.042
--------------------------------------------------
tot          0.916   3.425  61.742  66.084
 

 total amount of memory used by VASP MPI-rank0   181940. kBytes
=======================================================================

   base      :      30000. kBytes
   nonlr-proj:      12784. kBytes
   fftplans  :       2375. kBytes
   grid      :       7121. kBytes
   one-center:        186. kBytes
   wavefun   :     129474. kBytes
 
  
  
 General timing and accounting informations for this job:
 ========================================================
  
                  Total CPU time used (sec):     1485.687
                            User time (sec):     1316.408
                          System time (sec):      169.279
                         Elapsed time (sec):     1549.957
  
                   Maximum memory used (kb):      611412.
                   Average memory used (kb):          N/A
  
                          Minor page faults:       434617
                          Major page faults:            0
                 Voluntary context switches:       133613
