       N       E                     dE             d eps       ncg     rms          ort
DAV:   1     0.147711040092E+05    0.14771E+05   -0.58475E+05  1320   0.173E+03
DAV:   2     0.123940787264E+04   -0.13532E+05   -0.13017E+05  1320   0.526E+02
DAV:   3    -0.132045162182E+04   -0.25599E+04   -0.24789E+04  1320   0.207E+02
DAV:   4    -0.148633661994E+04   -0.16588E+03   -0.16150E+03  1320   0.601E+01
DAV:   5    -0.149522582230E+04   -0.88892E+01   -0.82909E+01  1320   0.122E+01
SDA:   6     0.107707977655E+03    0.16029E+04   -0.82909E+01  1320   0.972E+04 0.000E+00
CGA:   7    -0.903606640246E+03   -0.10113E+04   -0.11593E+04  1320   0.112E+04 0.382E+03
CGA:   8    -0.972486595063E+03   -0.68880E+02   -0.95233E+02  1320   0.907E+03-0.992E+02
CGA:   9    -0.102853194626E+04   -0.56045E+02   -0.62025E+02  1320   0.709E+03-0.434E+02
CGA:  10    -0.105864065169E+04   -0.30109E+02   -0.49241E+02  1320   0.675E+03-0.226E+03
CGA:  11    -0.108157209459E+04   -0.22931E+02   -0.15035E+02  1320   0.351E+03 0.160E+03
CGA:  12    -0.108475947997E+04   -0.31874E+01   -0.21186E+02  1320   0.524E+03-0.240E+03
CGA:  13    -0.109060238631E+04   -0.58429E+01   -0.26405E+02  1320   0.625E+03-0.478E+03
CGA:  14    -0.109946697592E+04   -0.88646E+01   -0.23974E+02  1320   0.525E+03-0.442E+03
CGA:  15    -0.109333674819E+04    0.61302E+01   -0.21388E+02  1320   0.131E+04-0.793E+03
CGA:  16    -0.106880656809E+04    0.24530E+02   -0.53856E+02  1320   0.207E+04-0.123E+04
CGA:  17    -0.104608450091E+04    0.22722E+02   -0.82894E+02  1320   0.216E+04-0.166E+04
CGA:  18    -0.102702562094E+04    0.19059E+02   -0.89294E+02  1320   0.306E+04-0.263E+04
CGA:  19    -0.102630641417E+04    0.71921E+00   -0.12620E+03  1320   0.290E+04-0.282E+04
CGA:  20    -0.101821454998E+04    0.80919E+01   -0.12427E+03  1320   0.308E+04-0.292E+04
CGA:  21    -0.104494798541E+04   -0.26733E+02   -0.11825E+03  1320   0.235E+04-0.272E+04
CGA:  22    -0.105519815464E+04   -0.10250E+02   -0.89540E+02  1320   0.255E+04-0.279E+04
CGA:  23    -0.107247608906E+04   -0.17278E+02   -0.87754E+02  1320   0.175E+04-0.203E+04
CGA:  24    -0.108731425460E+04   -0.14838E+02   -0.56792E+02  1320   0.169E+04-0.205E+04
CGA:  25    -0.110160104156E+04   -0.14287E+02   -0.48785E+02  1320   0.100E+04-0.130E+04
CGA:  26    -0.111189956182E+04   -0.10299E+02   -0.26896E+02  1320   0.667E+03-0.925E+03
CGA:  27    -0.111518974075E+04   -0.32902E+01   -0.18388E+02  1320   0.432E+03-0.496E+03
CGA:  28    -0.112128111436E+04   -0.60914E+01   -0.94157E+01  1320   0.943E+02-0.205E+03
CGA:  29    -0.112291822054E+04   -0.16371E+01   -0.17944E+01  1320   0.783E+01-0.301E+01
CGA:  30    -0.112327951617E+04   -0.36130E+00   -0.36301E+00  1320   0.121E+02 0.209E-02
CGA:  31    -0.112545912586E+04   -0.21796E+01   -0.21258E+01  1320   0.906E+01 0.414E+00
CGA:  32    -0.112594094272E+04   -0.48182E+00   -0.50806E+00  1320   0.795E+01-0.113E+00
CGA:  33    -0.112621643232E+04   -0.27549E+00   -0.29054E+00  1320   0.311E+01-0.311E+00
CGA:  34    -0.112643597172E+04   -0.21954E+00   -0.22231E+00  1320   0.207E+01 0.698E-01
CGA:  35    -0.112660773175E+04   -0.17176E+00   -0.17296E+00  1320   0.265E+01 0.109E+00
CGA:  36    -0.112674216462E+04   -0.13443E+00   -0.13600E+00  1320   0.143E+01-0.137E-01
CGA:  37    -0.112686179026E+04   -0.11963E+00   -0.11967E+00  1320   0.969E+00 0.385E-01
CGA:  38    -0.112692350346E+04   -0.61713E-01   -0.62399E-01  1320   0.897E+00 0.440E-02
CGA:  39    -0.112699411851E+04   -0.70615E-01   -0.70996E-01  1320   0.622E+00 0.353E-01
CGA:  40    -0.112705690769E+04   -0.62789E-01   -0.62760E-01  1320   0.611E+00 0.551E-03
CGA:  41    -0.112709712818E+04   -0.40220E-01   -0.40300E-01  1320   0.458E+00 0.714E-03
CGA:  42    -0.112713648976E+04   -0.39362E-01   -0.39297E-01  1320   0.198E+00 0.124E-01
CGA:  43    -0.112715523760E+04   -0.18748E-01   -0.18694E-01  1320   0.184E+00 0.326E-02
CGA:  44    -0.112717101040E+04   -0.15773E-01   -0.15773E-01  1320   0.164E+00-0.835E-03
CGA:  45    -0.112718449423E+04   -0.13484E-01   -0.13476E-01  1320   0.117E+00-0.354E-02
CGA:  46    -0.112719349892E+04   -0.90047E-02   -0.90151E-02  1320   0.607E-01 0.742E-03
CGA:  47    -0.112720053019E+04   -0.70313E-02   -0.70178E-02  1320   0.609E-01 0.297E-03
CGA:  48    -0.112720577660E+04   -0.52464E-02   -0.52473E-02  1320   0.597E-01-0.452E-03
CGA:  49    -0.112721006206E+04   -0.42855E-02   -0.42844E-02  1320   0.392E-01 0.144E-03
CGA:  50    -0.112721399832E+04   -0.39363E-02   -0.39360E-02  1320   0.203E-01 0.126E-03
CGA:  51    -0.112721588517E+04   -0.18868E-02   -0.18854E-02  1320   0.181E-01 0.221E-03
CGA:  52    -0.112721730193E+04   -0.14168E-02   -0.14172E-02  1320   0.162E-01 0.163E-03
CGA:  53    -0.112721848945E+04   -0.11875E-02   -0.11885E-02  1320   0.100E-01 0.165E-03
CGA:  54    -0.112721945427E+04   -0.96482E-03   -0.96353E-03  1320   0.488E-02 0.133E-03
CGA:  55    -0.112721999529E+04   -0.54103E-03   -0.54031E-03  1320   0.587E-02 0.360E-04
CGA:  56    -0.112722039945E+04   -0.40416E-03   -0.40422E-03  1320   0.495E-02 0.175E-04
CGA:  57    -0.112722086123E+04   -0.46178E-03   -0.46190E-03  1320   0.330E-02-0.111E-04
SDA:  58    -0.112722115868E+04   -0.29746E-03   -0.29761E-03  1320   0.182E-02-0.280E-04
CGA:  59    -0.112722126761E+04   -0.10892E-03   -0.10871E-03  1320   0.142E-02-0.736E-05
CGA:  60    -0.112722139150E+04   -0.12390E-03   -0.12396E-03  1320   0.186E-02-0.195E-04
CGA:  61    -0.112722160554E+04   -0.21403E-03   -0.21576E-03  1320   0.165E-02-0.532E-04
CGA:  62    -0.112722175771E+04   -0.15217E-03   -0.15257E-03  1320   0.935E-03-0.456E-04
CGA:  63    -0.112722186602E+04   -0.10831E-03   -0.10965E-03  1320   0.892E-03-0.404E-04
CGA:  64    -0.112722195655E+04   -0.90532E-04   -0.91001E-04  1320   0.814E-03-0.278E-04
CGA:  65    -0.112722203851E+04   -0.81958E-04   -0.82153E-04  1320   0.623E-03-0.154E-04
CGA:  66    -0.112722208239E+04   -0.43889E-04   -0.43975E-04  1320   0.615E-03 0.326E-05
CGA:  67    -0.112722212480E+04   -0.42402E-04   -0.42671E-04  1320   0.357E-03 0.123E-04
CGA:  68    -0.112722217259E+04   -0.47793E-04   -0.46728E-04  1320   0.277E-03 0.242E-04
CGA:  69    -0.112722221947E+04   -0.46883E-04   -0.44960E-04  1320   0.272E-03 0.283E-04
CGA:  70    -0.112722225151E+04   -0.32040E-04   -0.31742E-04  1320   0.267E-03 0.226E-04
CGA:  71    -0.112722228063E+04   -0.29113E-04   -0.28975E-04  1320   0.365E-03 0.210E-04
CGA:  72    -0.112722231102E+04   -0.30393E-04   -0.30730E-04  1320   0.347E-03 0.205E-04
CGA:  73    -0.112722233839E+04   -0.27369E-04   -0.27627E-04  1320   0.183E-03 0.145E-04
CGA:  74    -0.112722236203E+04   -0.23638E-04   -0.23542E-04  1320   0.189E-03 0.232E-05
CGA:  75    -0.112722238148E+04   -0.19449E-04   -0.19494E-04  1320   0.129E-03-0.644E-05
CGA:  76    -0.112722239520E+04   -0.13723E-04   -0.13911E-04  1320   0.106E-03-0.118E-04
CGA:  77    -0.112722240761E+04   -0.12414E-04   -0.13041E-04  1320   0.132E-03-0.162E-04
CGA:  78    -0.112722241333E+04   -0.57196E-05   -0.53964E-05  1320   0.747E-04-0.691E-05
   1 F= -.11272224E+04 E0= -.11271904E+04  d E =-.112722E+04  mag=    19.9991
       N       E                     dE             d eps       ncg     rms          ort
SDA:   1    -0.112723555039E+04   -0.13143E-01    0.00000E+00  1320   0.315E-01 0.000E+00
CGA:   2    -0.112723764061E+04   -0.20902E-02   -0.20898E-02  1320   0.151E-01-0.149E-04
CGA:   3    -0.112723905222E+04   -0.14116E-02   -0.14116E-02  1320   0.123E-01-0.145E-04
CGA:   4    -0.112723969409E+04   -0.64187E-03   -0.63989E-03  1320   0.713E-02 0.364E-05
CGA:   5    -0.112724027311E+04   -0.57902E-03   -0.57912E-03  1320   0.424E-02 0.113E-05
CGA:   6    -0.112724061985E+04   -0.34674E-03   -0.34672E-03  1320   0.832E-03-0.387E-05
CGA:   7    -0.112724069451E+04   -0.74653E-04   -0.74651E-04  1320   0.538E-03-0.502E-05
CGA:   8    -0.112724072928E+04   -0.34778E-04   -0.34636E-04  1320   0.389E-03-0.497E-05
CGA:   9    -0.112724075109E+04   -0.21807E-04   -0.21656E-04  1320   0.121E-03-0.476E-05
CGA:  10    -0.112724075926E+04   -0.81660E-05   -0.81152E-05  1320   0.660E-04-0.264E-05
   2 F= -.11272408E+04 E0= -.11272089E+04  d E =-.183459E-01  mag=    19.9990
       N       E                     dE             d eps       ncg     rms          ort
SDA:   1    -0.111729824298E+04    0.99425E+01    0.00000E+00  1320   0.390E+02 0.000E+00
CGA:   2    -0.112323208344E+04   -0.59338E+01   -0.59012E+01  1320   0.227E+02 0.458E+00
CGA:   3    -0.112456313250E+04   -0.13310E+01   -0.11965E+01  1320   0.188E+02 0.770E+00
CGA:   4    -0.112687062759E+04   -0.23075E+01   -0.23085E+01  1320   0.984E+01-0.544E-01
CGA:   5    -0.112740355371E+04   -0.53293E+00   -0.54511E+00  1320   0.308E+01-0.370E-01
CGA:   6    -0.112760678323E+04   -0.20323E+00   -0.20016E+00  1320   0.246E+01-0.185E-01
CGA:   7    -0.112775833429E+04   -0.15155E+00   -0.15126E+00  1320   0.111E+01-0.585E-03
CGA:   8    -0.112782144994E+04   -0.63116E-01   -0.63609E-01  1320   0.302E+00 0.388E-03
CGA:   9    -0.112784821044E+04   -0.26761E-01   -0.26755E-01  1320   0.202E+00 0.659E-03
CGA:  10    -0.112786356935E+04   -0.15359E-01   -0.15376E-01  1320   0.162E+00 0.737E-03
CGA:  11    -0.112787222728E+04   -0.86579E-02   -0.86756E-02  1320   0.675E-01-0.144E-04
CGA:  12    -0.112787793301E+04   -0.57057E-02   -0.57052E-02  1320   0.456E-01 0.155E-03
CGA:  13    -0.112788326590E+04   -0.53329E-02   -0.53264E-02  1320   0.279E-01 0.145E-03
CGA:  14    -0.112788536530E+04   -0.20994E-02   -0.20994E-02  1320   0.304E-01 0.727E-05
CGA:  15    -0.112788728126E+04   -0.19160E-02   -0.19180E-02  1320   0.133E-01 0.292E-04
CGA:  16    -0.112788904548E+04   -0.17642E-02   -0.17610E-02  1320   0.105E-01 0.600E-04
CGA:  17    -0.112789000244E+04   -0.95695E-03   -0.95685E-03  1320   0.938E-02 0.251E-04
CGA:  18    -0.112789066700E+04   -0.66456E-03   -0.66535E-03  1320   0.696E-02 0.316E-04
CGA:  19    -0.112789114161E+04   -0.47461E-03   -0.47496E-03  1320   0.400E-02 0.182E-04
CGA:  20    -0.112789148933E+04   -0.34772E-03   -0.34769E-03  1320   0.222E-02 0.112E-04
CGA:  21    -0.112789175226E+04   -0.26293E-03   -0.26275E-03  1320   0.192E-02 0.480E-05
CGA:  22    -0.112789192266E+04   -0.17041E-03   -0.17042E-03  1320   0.135E-02-0.312E-05
CGA:  23    -0.112789200845E+04   -0.85781E-04   -0.85695E-04  1320   0.110E-02-0.429E-05
CGA:  24    -0.112789211264E+04   -0.10420E-03   -0.10427E-03  1320   0.894E-03-0.747E-05
CGA:  25    -0.112789220670E+04   -0.94059E-04   -0.94190E-04  1320   0.420E-03-0.654E-05
CGA:  26    -0.112789225387E+04   -0.47170E-04   -0.47139E-04  1320   0.434E-03 0.990E-06
CGA:  27    -0.112789228333E+04   -0.29465E-04   -0.29505E-04  1320   0.386E-03 0.227E-05
CGA:  28    -0.112789231268E+04   -0.29344E-04   -0.29366E-04  1320   0.161E-03 0.192E-05
CGA:  29    -0.112789232935E+04   -0.16668E-04   -0.16691E-04  1320   0.125E-03-0.148E-05
CGA:  30    -0.112789234142E+04   -0.12075E-04   -0.12105E-04  1320   0.945E-04-0.292E-05
CGA:  31    -0.112789235063E+04   -0.92070E-05   -0.92376E-05  1320   0.770E-04-0.256E-05
   3 F= -.11278924E+04 E0= -.11278623E+04  d E =-.651591E+00  mag=    19.9990
       N       E                     dE             d eps       ncg     rms          ort
SDA:   1    -0.110223688767E+04    0.25655E+02    0.00000E+00  1320   0.874E+02 0.000E+00
CGA:   2    -0.111710257471E+04   -0.14866E+02   -0.14690E+02  1320   0.540E+02 0.214E+01
CGA:   3    -0.112151280014E+04   -0.44102E+01   -0.42625E+01  1320   0.551E+02-0.480E+01
CGA:   4    -0.112516327493E+04   -0.36505E+01   -0.36613E+01  1320   0.360E+02 0.353E+00
CGA:   5    -0.112696058942E+04   -0.17973E+01   -0.17650E+01  1320   0.104E+02 0.177E+00
CGA:   6    -0.112751114429E+04   -0.55055E+00   -0.52837E+00  1320   0.647E+01 0.111E+00
CGA:   7    -0.112790261130E+04   -0.39147E+00   -0.38776E+00  1320   0.419E+01-0.706E-02
CGA:   8    -0.112818729737E+04   -0.28469E+00   -0.28656E+00  1320   0.115E+01 0.341E-01
CGA:   9    -0.112824408266E+04   -0.56785E-01   -0.57410E-01  1320   0.770E+00-0.232E-02
CGA:  10    -0.112829275031E+04   -0.48668E-01   -0.48777E-01  1320   0.408E+00 0.126E-02
CGA:  11    -0.112833048500E+04   -0.37735E-01   -0.37693E-01  1320   0.268E+00 0.226E-02
CGA:  12    -0.112834812877E+04   -0.17644E-01   -0.17717E-01  1320   0.154E+00 0.127E-02
CGA:  13    -0.112835710696E+04   -0.89782E-02   -0.90136E-02  1320   0.117E+00 0.168E-03
CGA:  14    -0.112836941930E+04   -0.12312E-01   -0.12285E-01  1320   0.716E-01 0.786E-03
CGA:  15    -0.112837587123E+04   -0.64519E-02   -0.64460E-02  1320   0.542E-01 0.411E-03
CGA:  16    -0.112837925885E+04   -0.33876E-02   -0.33986E-02  1320   0.418E-01 0.128E-03
CGA:  17    -0.112838321908E+04   -0.39602E-02   -0.39564E-02  1320   0.369E-01 0.193E-03
CGA:  18    -0.112838632254E+04   -0.31035E-02   -0.31027E-02  1320   0.178E-01 0.154E-03
CGA:  19    -0.112838811047E+04   -0.17879E-02   -0.17870E-02  1320   0.160E-01 0.386E-04
CGA:  20    -0.112838917820E+04   -0.10677E-02   -0.10680E-02  1320   0.132E-01 0.112E-04
CGA:  21    -0.112839030355E+04   -0.11254E-02   -0.11253E-02  1320   0.501E-02 0.454E-05
CGA:  22    -0.112839088835E+04   -0.58479E-03   -0.58473E-03  1320   0.444E-02 0.181E-05
CGA:  23    -0.112839129067E+04   -0.40232E-03   -0.40241E-03  1320   0.489E-02-0.689E-05
CGA:  24    -0.112839160418E+04   -0.31351E-03   -0.31334E-03  1320   0.247E-02-0.731E-05
CGA:  25    -0.112839188311E+04   -0.27893E-03   -0.27935E-03  1320   0.213E-02-0.140E-04
CGA:  26    -0.112839208917E+04   -0.20606E-03   -0.20623E-03  1320   0.144E-02-0.114E-04
CGA:  27    -0.112839219244E+04   -0.10327E-03   -0.10322E-03  1320   0.133E-02-0.310E-05
CGA:  28    -0.112839229633E+04   -0.10389E-03   -0.10389E-03  1320   0.750E-03 0.266E-07
CGA:  29    -0.112839236809E+04   -0.71758E-04   -0.71747E-04  1320   0.501E-03 0.110E-05
CGA:  30    -0.112839241500E+04   -0.46912E-04   -0.46917E-04  1320   0.343E-03-0.476E-06
CGA:  31    -0.112839244203E+04   -0.27032E-04   -0.27015E-04  1320   0.389E-03-0.269E-05
SDA:  32    -0.112839247269E+04   -0.30653E-04   -0.30627E-04  1320   0.176E-03-0.513E-05
CGA:  33    -0.112839248423E+04   -0.11545E-04   -0.11562E-04  1320   0.903E-04 0.875E-06
CGA:  34    -0.112839249696E+04   -0.12730E-04   -0.12659E-04  1320   0.179E-03 0.122E-05
CGA:  35    -0.112839251078E+04   -0.13823E-04   -0.13840E-04  1320   0.107E-03 0.165E-05
CGA:  36    -0.112839251896E+04   -0.81770E-05   -0.81885E-05  1320   0.572E-04 0.106E-05
   4 F= -.11283925E+04 E0= -.11283642E+04  d E =-.500168E+00  mag=    19.9993
       N       E                     dE             d eps       ncg     rms          ort
SDA:   1    -0.111044654025E+04    0.17946E+02    0.00000E+00  1320   0.627E+02 0.000E+00
CGA:   2    -0.112081946312E+04   -0.10373E+02   -0.10368E+02  1320   0.394E+02 0.571E-01
CGA:   3    -0.112449954867E+04   -0.36801E+01   -0.36785E+01  1320   0.232E+02 0.376E+00
CGA:   4    -0.112715662393E+04   -0.26571E+01   -0.26568E+01  1320   0.129E+02-0.127E-01
CGA:   5    -0.112785692577E+04   -0.70030E+00   -0.68623E+00  1320   0.503E+01 0.796E-01
CGA:   6    -0.112819131679E+04   -0.33439E+00   -0.32941E+00  1320   0.293E+01-0.252E-01
CGA:   7    -0.112844997749E+04   -0.25866E+00   -0.25867E+00  1320   0.982E+00 0.201E-01
CGA:   8    -0.112852228527E+04   -0.72308E-01   -0.72259E-01  1320   0.310E+00-0.727E-03
CGA:   9    -0.112855763499E+04   -0.35350E-01   -0.35287E-01  1320   0.216E+00 0.180E-02
CGA:  10    -0.112857772465E+04   -0.20090E-01   -0.20089E-01  1320   0.160E+00 0.140E-03
CGA:  11    -0.112858625621E+04   -0.85316E-02   -0.85058E-02  1320   0.779E-01 0.145E-03
CGA:  12    -0.112859516367E+04   -0.89075E-02   -0.88998E-02  1320   0.554E-01 0.215E-03
CGA:  13    -0.112860163474E+04   -0.64711E-02   -0.64670E-02  1320   0.378E-01 0.109E-03
CGA:  14    -0.112860510053E+04   -0.34658E-02   -0.34656E-02  1320   0.237E-01 0.110E-03
CGA:  15    -0.112860884406E+04   -0.37435E-02   -0.37389E-02  1320   0.238E-01 0.636E-04
CGA:  16    -0.112861069713E+04   -0.18531E-02   -0.18529E-02  1320   0.198E-01 0.775E-05
CGA:  17    -0.112861191379E+04   -0.12167E-02   -0.12182E-02  1320   0.857E-02 0.773E-05
CGA:  18    -0.112861307174E+04   -0.11579E-02   -0.11575E-02  1320   0.613E-02 0.964E-05
CGA:  19    -0.112861365801E+04   -0.58627E-03   -0.58626E-03  1320   0.316E-02 0.387E-05
CGA:  20    -0.112861403717E+04   -0.37916E-03   -0.37934E-03  1320   0.275E-02-0.623E-05
CGA:  21    -0.112861428959E+04   -0.25241E-03   -0.25239E-03  1320   0.249E-02-0.743E-05
CGA:  22    -0.112861446874E+04   -0.17916E-03   -0.17905E-03  1320   0.180E-02-0.388E-05
CGA:  23    -0.112861462125E+04   -0.15251E-03   -0.15248E-03  1320   0.842E-03-0.262E-05
CGA:  24    -0.112861476371E+04   -0.14246E-03   -0.14268E-03  1320   0.722E-03-0.285E-05
CGA:  25    -0.112861483528E+04   -0.71567E-04   -0.71575E-04  1320   0.449E-03-0.313E-05
CGA:  26    -0.112861488135E+04   -0.46073E-04   -0.46092E-04  1320   0.401E-03-0.312E-05
CGA:  27    -0.112861491051E+04   -0.29154E-04   -0.29097E-04  1320   0.334E-03-0.241E-05
CGA:  28    -0.112861493811E+04   -0.27601E-04   -0.27584E-04  1320   0.154E-03-0.116E-05
CGA:  29    -0.112861495551E+04   -0.17406E-04   -0.17395E-04  1320   0.130E-03 0.597E-06
CGA:  30    -0.112861497254E+04   -0.17026E-04   -0.16978E-04  1320   0.907E-04 0.139E-05
CGA:  31    -0.112861498405E+04   -0.11512E-04   -0.11490E-04  1320   0.912E-04 0.840E-06
SDA:  32    -0.112861499159E+04   -0.75383E-05   -0.75524E-05  1320   0.919E-04 0.805E-06
   5 F= -.11286150E+04 E0= -.11285874E+04  d E =-.222473E+00  mag=    19.9992
       N       E                     dE             d eps       ncg     rms          ort
SDA:   1    -0.110425361479E+04    0.24361E+02    0.00000E+00  1320   0.847E+02 0.000E+00
CGA:   2    -0.111784324777E+04   -0.13590E+02   -0.13597E+02  1320   0.734E+02-0.429E-01
CGA:   3    -0.112177532292E+04   -0.39321E+01   -0.41381E+01  1320   0.437E+02-0.229E+01
CGA:   4    -0.112556829168E+04   -0.37930E+01   -0.37937E+01  1320   0.255E+02 0.681E-01
CGA:   5    -0.112755782419E+04   -0.19895E+01   -0.19581E+01  1320   0.629E+01-0.311E+00
CGA:   6    -0.112810622282E+04   -0.54840E+00   -0.54630E+00  1320   0.478E+01-0.117E+00
CGA:   7    -0.112843342791E+04   -0.32721E+00   -0.33065E+00  1320   0.244E+01 0.248E-01
CGA:   8    -0.112856113300E+04   -0.12771E+00   -0.12857E+00  1320   0.672E+00-0.760E-02
CGA:   9    -0.112862398951E+04   -0.62857E-01   -0.62859E-01  1320   0.380E+00-0.639E-03
CGA:  10    -0.112865825211E+04   -0.34263E-01   -0.34269E-01  1320   0.249E+00 0.200E-02
CGA:  11    -0.112867492046E+04   -0.16668E-01   -0.16718E-01  1320   0.157E+00 0.290E-03
CGA:  12    -0.112868746902E+04   -0.12549E-01   -0.12544E-01  1320   0.978E-01-0.136E-03
CGA:  13    -0.112869848355E+04   -0.11015E-01   -0.10995E-01  1320   0.678E-01 0.620E-03
CGA:  14    -0.112870474895E+04   -0.62654E-02   -0.62655E-02  1320   0.515E-01-0.714E-04
CGA:  15    -0.112870869456E+04   -0.39456E-02   -0.39510E-02  1320   0.451E-01 0.138E-03
CGA:  16    -0.112871302156E+04   -0.43270E-02   -0.43267E-02  1320   0.289E-01 0.539E-04
CGA:  17    -0.112871611718E+04   -0.30956E-02   -0.30923E-02  1320   0.163E-01 0.147E-03
CGA:  18    -0.112871766883E+04   -0.15516E-02   -0.15516E-02  1320   0.182E-01 0.208E-04
CGA:  19    -0.112871889807E+04   -0.12292E-02   -0.12318E-02  1320   0.696E-02 0.264E-04
CGA:  20    -0.112871964844E+04   -0.75037E-03   -0.75042E-03  1320   0.438E-02-0.142E-06
CGA:  21    -0.112872010370E+04   -0.45526E-03   -0.45529E-03  1320   0.412E-02-0.366E-05
CGA:  22    -0.112872039407E+04   -0.29037E-03   -0.29018E-03  1320   0.288E-02-0.532E-05
CGA:  23    -0.112872068317E+04   -0.28910E-03   -0.28916E-03  1320   0.162E-02-0.680E-05
CGA:  24    -0.112872085902E+04   -0.17585E-03   -0.17596E-03  1320   0.139E-02-0.575E-05
CGA:  25    -0.112872099069E+04   -0.13167E-03   -0.13169E-03  1320   0.133E-02-0.544E-05
CGA:  26    -0.112872107905E+04   -0.88364E-04   -0.88257E-04  1320   0.584E-03-0.315E-05
CGA:  27    -0.112872114740E+04   -0.68341E-04   -0.68446E-04  1320   0.476E-03-0.395E-05
CGA:  28    -0.112872119693E+04   -0.49533E-04   -0.49572E-04  1320   0.381E-03-0.311E-05
CGA:  29    -0.112872122243E+04   -0.25506E-04   -0.25455E-04  1320   0.252E-03-0.198E-05
CGA:  30    -0.112872124605E+04   -0.23610E-04   -0.23614E-04  1320   0.153E-03-0.111E-05
CGA:  31    -0.112872126744E+04   -0.21396E-04   -0.21415E-04  1320   0.144E-03-0.398E-06
SDA:  32    -0.112872127770E+04   -0.10263E-04   -0.10272E-04  1320   0.105E-03 0.439E-06
CGA:  33    -0.112872128224E+04   -0.45346E-05   -0.45476E-05  1320   0.573E-04 0.192E-06
   6 F= -.11287213E+04 E0= -.11286945E+04  d E =-.106291E+00  mag=    19.9979
       N       E                     dE             d eps       ncg     rms          ort
SDA:   1    -0.111199355405E+04    0.16728E+02    0.00000E+00  1320   0.613E+02 0.000E+00
CGA:   2    -0.112147252815E+04   -0.94790E+01   -0.94946E+01  1320   0.460E+02-0.210E+00
CGA:   3    -0.112382548970E+04   -0.23530E+01   -0.25596E+01  1320   0.306E+02-0.136E+01
CGA:   4    -0.112685716871E+04   -0.30317E+01   -0.30416E+01  1320   0.168E+02-0.762E+00
CGA:   5    -0.112800876011E+04   -0.11516E+01   -0.11537E+01  1320   0.436E+01 0.272E-01
CGA:   6    -0.112834000044E+04   -0.33124E+00   -0.32764E+00  1320   0.393E+01-0.481E-01
CGA:   7    -0.112858196134E+04   -0.24196E+00   -0.24689E+00  1320   0.134E+01 0.107E-01
CGA:   8    -0.112868584041E+04   -0.10388E+00   -0.10382E+00  1320   0.414E+00-0.106E-02
CGA:   9    -0.112872000500E+04   -0.34165E-01   -0.34188E-01  1320   0.337E+00 0.127E-02
CGA:  10    -0.112874265940E+04   -0.22654E-01   -0.22660E-01  1320   0.171E+00 0.660E-04
CGA:  11    -0.112875526896E+04   -0.12610E-01   -0.12649E-01  1320   0.905E-01 0.784E-03
CGA:  12    -0.112876411790E+04   -0.88489E-02   -0.88498E-02  1320   0.576E-01-0.530E-04
CGA:  13    -0.112877042608E+04   -0.63082E-02   -0.62926E-02  1320   0.630E-01 0.518E-03
CGA:  14    -0.112877412042E+04   -0.36943E-02   -0.36967E-02  1320   0.257E-01 0.566E-05
CGA:  15    -0.112877723841E+04   -0.31180E-02   -0.31169E-02  1320   0.233E-01 0.287E-04
CGA:  16    -0.112877976325E+04   -0.25248E-02   -0.25244E-02  1320   0.204E-01 0.261E-04
CGA:  17    -0.112878111918E+04   -0.13559E-02   -0.13583E-02  1320   0.127E-01 0.294E-04
CGA:  18    -0.112878230982E+04   -0.11906E-02   -0.11906E-02  1320   0.762E-02 0.108E-04
CGA:  19    -0.112878316739E+04   -0.85756E-03   -0.85671E-03  1320   0.555E-02 0.309E-04
CGA:  20    -0.112878353497E+04   -0.36758E-03   -0.36767E-03  1320   0.347E-02 0.634E-05
CGA:  21    -0.112878384495E+04   -0.30998E-03   -0.30998E-03  1320   0.236E-02 0.302E-05
CGA:  22    -0.112878409235E+04   -0.24740E-03   -0.24745E-03  1320   0.165E-02-0.262E-05
CGA:  23    -0.112878425122E+04   -0.15887E-03   -0.15890E-03  1320   0.153E-02-0.360E-05
CGA:  24    -0.112878435231E+04   -0.10108E-03   -0.10099E-03  1320   0.834E-03-0.265E-05
CGA:  25    -0.112878445948E+04   -0.10717E-03   -0.10735E-03  1320   0.581E-03-0.460E-05
CGA:  26    -0.112878451028E+04   -0.50797E-04   -0.50788E-04  1320   0.504E-03-0.231E-05
CGA:  27    -0.112878454683E+04   -0.36550E-04   -0.36505E-04  1320   0.304E-03-0.244E-05
CGA:  28    -0.112878457711E+04   -0.30287E-04   -0.30310E-04  1320   0.168E-03-0.225E-05
CGA:  29    -0.112878459584E+04   -0.18728E-04   -0.18768E-04  1320   0.184E-03-0.187E-05
CGA:  30    -0.112878460696E+04   -0.11123E-04   -0.11098E-04  1320   0.828E-04-0.752E-06
CGA:  31    -0.112878461810E+04   -0.11135E-04   -0.11153E-04  1320   0.770E-04-0.428E-06
SDA:  32    -0.112878462524E+04   -0.71454E-05   -0.71455E-05  1320   0.658E-04 0.429E-07
   7 F= -.11287846E+04 E0= -.11287577E+04  d E =-.633430E-01  mag=    19.9934
       N       E                     dE             d eps       ncg     rms          ort
SDA:   1    -0.112669053519E+04    0.20941E+01    0.00000E+00  1320   0.751E+01 0.000E+00
CGA:   2    -0.112783824691E+04   -0.11477E+01   -0.11484E+01  1320   0.663E+01-0.876E-02
CGA:   3    -0.112818475798E+04   -0.34651E+00   -0.34166E+00  1320   0.365E+01 0.297E-01
CGA:   4    -0.112857477467E+04   -0.39002E+00   -0.39003E+00  1320   0.232E+01-0.799E-03
CGA:   5    -0.112875711176E+04   -0.18234E+00   -0.18219E+00  1320   0.499E+00-0.375E-02
CGA:   6    -0.112880550567E+04   -0.48394E-01   -0.48378E-01  1320   0.374E+00 0.157E-02
CGA:   7    -0.112882845551E+04   -0.22950E-01   -0.22877E-01  1320   0.186E+00 0.964E-04
CGA:   8    -0.112884025084E+04   -0.11795E-01   -0.11782E-01  1320   0.490E-01 0.394E-05
CGA:   9    -0.112884467357E+04   -0.44227E-02   -0.44222E-02  1320   0.291E-01 0.183E-03
CGA:  10    -0.112884761093E+04   -0.29374E-02   -0.29372E-02  1320   0.171E-01 0.145E-04
CGA:  11    -0.112884880272E+04   -0.11918E-02   -0.11922E-02  1320   0.127E-01 0.127E-04
CGA:  12    -0.112884976709E+04   -0.96436E-03   -0.96478E-03  1320   0.673E-02 0.145E-04
CGA:  13    -0.112885053226E+04   -0.76517E-03   -0.76541E-03  1320   0.432E-02-0.738E-05
CGA:  14    -0.112885096744E+04   -0.43519E-03   -0.43524E-03  1320   0.309E-02-0.646E-05
CGA:  15    -0.112885120891E+04   -0.24147E-03   -0.24139E-03  1320   0.282E-02-0.605E-05
CGA:  16    -0.112885143668E+04   -0.22777E-03   -0.22771E-03  1320   0.168E-02-0.701E-05
CGA:  17    -0.112885162660E+04   -0.18992E-03   -0.19008E-03  1320   0.985E-03-0.687E-05
CGA:  18    -0.112885171989E+04   -0.93297E-04   -0.93310E-04  1320   0.738E-03-0.277E-05
CGA:  19    -0.112885177827E+04   -0.58381E-04   -0.58381E-04  1320   0.585E-03 0.455E-07
CGA:  20    -0.112885181949E+04   -0.41220E-04   -0.41237E-04  1320   0.285E-03 0.550E-06
CGA:  21    -0.112885185593E+04   -0.36438E-04   -0.36413E-04  1320   0.160E-03 0.643E-06
CGA:  22    -0.112885187512E+04   -0.19187E-04   -0.19167E-04  1320   0.230E-03 0.658E-06
CGA:  23    -0.112885188994E+04   -0.14818E-04   -0.14835E-04  1320   0.110E-03 0.605E-06
CGA:  24    -0.112885190242E+04   -0.12477E-04   -0.12483E-04  1320   0.821E-04-0.262E-06
CGA:  25    -0.112885191126E+04   -0.88426E-05   -0.88436E-05  1320   0.641E-04-0.840E-07
   8 F= -.11288519E+04 E0= -.11288250E+04  d E =-.672860E-01  mag=    19.9926
       N       E                     dE             d eps       ncg     rms          ort
SDA:   1    -0.112693015506E+04    0.19217E+01    0.00000E+00  1320   0.649E+01 0.000E+00
CGA:   2    -0.112797518693E+04   -0.10450E+01   -0.10506E+01  1320   0.646E+01-0.732E-01
CGA:   3    -0.112829633812E+04   -0.32115E+00   -0.32815E+00  1320   0.334E+01-0.660E-01
CGA:   4    -0.112864011951E+04   -0.34378E+00   -0.34306E+00  1320   0.218E+01 0.416E-01
CGA:   5    -0.112879516753E+04   -0.15505E+00   -0.15407E+00  1320   0.487E+00-0.602E-02
CGA:   6    -0.112883621472E+04   -0.41047E-01   -0.41089E-01  1320   0.334E+00 0.215E-02
CGA:   7    -0.112886062742E+04   -0.24413E-01   -0.24417E-01  1320   0.181E+00 0.118E-03
CGA:   8    -0.112887089991E+04   -0.10272E-01   -0.10254E-01  1320   0.513E-01 0.898E-04
CGA:   9    -0.112887580390E+04   -0.49040E-02   -0.49034E-02  1320   0.246E-01 0.640E-04
CGA:  10    -0.112887842106E+04   -0.26172E-02   -0.26169E-02  1320   0.201E-01 0.776E-05
CGA:  11    -0.112887951177E+04   -0.10907E-02   -0.10899E-02  1320   0.890E-02 0.276E-05
CGA:  12    -0.112888049232E+04   -0.98054E-03   -0.98037E-03  1320   0.587E-02 0.606E-05
CGA:  13    -0.112888115767E+04   -0.66535E-03   -0.66544E-03  1320   0.441E-02-0.310E-05
CGA:  14    -0.112888148243E+04   -0.32476E-03   -0.32483E-03  1320   0.303E-02-0.155E-05
CGA:  15    -0.112888172716E+04   -0.24474E-03   -0.24473E-03  1320   0.241E-02-0.932E-06
CGA:  16    -0.112888197526E+04   -0.24809E-03   -0.24809E-03  1320   0.137E-02 0.242E-06
CGA:  17    -0.112888213236E+04   -0.15711E-03   -0.15705E-03  1320   0.106E-02 0.200E-05
CGA:  18    -0.112888220614E+04   -0.73777E-04   -0.73817E-04  1320   0.784E-03 0.171E-05
CGA:  19    -0.112888227334E+04   -0.67203E-04   -0.67220E-04  1320   0.440E-03 0.380E-05
CGA:  20    -0.112888231690E+04   -0.43559E-04   -0.43534E-04  1320   0.248E-03 0.295E-05
CGA:  21    -0.112888234281E+04   -0.25914E-04   -0.25903E-04  1320   0.247E-03 0.864E-06
CGA:  22    -0.112888236134E+04   -0.18530E-04   -0.18531E-04  1320   0.181E-03-0.881E-08
CGA:  23    -0.112888237795E+04   -0.16603E-04   -0.16603E-04  1320   0.111E-03-0.230E-06
CGA:  24    -0.112888239010E+04   -0.12152E-04   -0.12177E-04  1320   0.850E-04-0.132E-05
CGA:  25    -0.112888239852E+04   -0.84244E-05   -0.84314E-05  1320   0.806E-04-0.728E-06
   9 F= -.11288824E+04 E0= -.11288560E+04  d E =-.304873E-01  mag=    19.9905
       N       E                     dE             d eps       ncg     rms          ort
SDA:   1    -0.111944427509E+04    0.94381E+01    0.00000E+00  1320   0.300E+02 0.000E+00
CGA:   2    -0.112527130394E+04   -0.58270E+01   -0.58417E+01  1320   0.170E+02-0.139E+00
CGA:   3    -0.112691966852E+04   -0.16484E+01   -0.16457E+01  1320   0.152E+02 0.109E+01
CGA:   4    -0.112817303718E+04   -0.12534E+01   -0.12445E+01  1320   0.669E+01-0.117E+00
CGA:   5    -0.112852955801E+04   -0.35652E+00   -0.33507E+00  1320   0.184E+01 0.203E+00
CGA:   6    -0.112875424491E+04   -0.22469E+00   -0.22466E+00  1320   0.122E+01 0.878E-03
CGA:   7    -0.112884994197E+04   -0.95697E-01   -0.95918E-01  1320   0.300E+00 0.442E-02
CGA:   8    -0.112887663164E+04   -0.26690E-01   -0.26692E-01  1320   0.199E+00 0.217E-03
CGA:   9    -0.112889030379E+04   -0.13672E-01   -0.13687E-01  1320   0.140E+00 0.677E-04
CGA:  10    -0.112890015441E+04   -0.98506E-02   -0.98289E-02  1320   0.457E-01-0.204E-03
CGA:  11    -0.112890588902E+04   -0.57346E-02   -0.57296E-02  1320   0.360E-01 0.115E-03
CGA:  12    -0.112891000625E+04   -0.41172E-02   -0.41148E-02  1320   0.222E-01 0.837E-04
CGA:  13    -0.112891217321E+04   -0.21670E-02   -0.21666E-02  1320   0.164E-01 0.513E-04
CGA:  14    -0.112891350094E+04   -0.13277E-02   -0.13281E-02  1320   0.165E-01 0.877E-05
CGA:  15    -0.112891492103E+04   -0.14201E-02   -0.14197E-02  1320   0.946E-02-0.242E-04
CGA:  16    -0.112891596833E+04   -0.10473E-02   -0.10470E-02  1320   0.526E-02 0.115E-04
CGA:  17    -0.112891664075E+04   -0.67242E-03   -0.67215E-03  1320   0.330E-02 0.785E-05
CGA:  18    -0.112891700581E+04   -0.36505E-03   -0.36483E-03  1320   0.219E-02 0.132E-04
CGA:  19    -0.112891724117E+04   -0.23536E-03   -0.23529E-03  1320   0.126E-02 0.641E-05
CGA:  20    -0.112891736528E+04   -0.12412E-03   -0.12411E-03  1320   0.154E-02 0.114E-05
CGA:  21    -0.112891747466E+04   -0.10938E-03   -0.10935E-03  1320   0.774E-03-0.175E-05
CGA:  22    -0.112891756037E+04   -0.85705E-04   -0.85767E-04  1320   0.541E-03-0.408E-05
CGA:  23    -0.112891762562E+04   -0.65252E-04   -0.65346E-04  1320   0.331E-03-0.373E-05
CGA:  24    -0.112891767089E+04   -0.45274E-04   -0.45294E-04  1320   0.249E-03-0.545E-06
CGA:  25    -0.112891769717E+04   -0.26280E-04   -0.26274E-04  1320   0.146E-03 0.945E-06
CGA:  26    -0.112891771423E+04   -0.17057E-04   -0.17062E-04  1320   0.108E-03-0.339E-06
CGA:  27    -0.112891772265E+04   -0.84144E-05   -0.83922E-05  1320   0.997E-04-0.101E-05
  10 F= -.11289177E+04 E0= -.11288924E+04  d E =-.353241E-01  mag=    19.9867
       N       E                     dE             d eps       ncg     rms          ort
SDA:   1    -0.111014799423E+04    0.18770E+02    0.00000E+00  1320   0.586E+02 0.000E+00
CGA:   2    -0.112225355587E+04   -0.12106E+02   -0.12127E+02  1320   0.297E+02-0.193E+00
CGA:   3    -0.112578058868E+04   -0.35270E+01   -0.34833E+01  1320   0.215E+02 0.194E+01
CGA:   4    -0.112766072579E+04   -0.18801E+01   -0.18128E+01  1320   0.962E+01-0.391E+00
CGA:   5    -0.112821299871E+04   -0.55227E+00   -0.54017E+00  1320   0.426E+01 0.847E-01
CGA:   6    -0.112861305927E+04   -0.40006E+00   -0.40064E+00  1320   0.228E+01 0.306E-01
CGA:   7    -0.112878963408E+04   -0.17657E+00   -0.17670E+00  1320   0.575E+00 0.118E-02
CGA:   8    -0.112884511086E+04   -0.55477E-01   -0.55484E-01  1320   0.280E+00 0.113E-02
CGA:   9    -0.112887346127E+04   -0.28350E-01   -0.28350E-01  1320   0.223E+00 0.282E-03
CGA:  10    -0.112888658889E+04   -0.13128E-01   -0.13090E-01  1320   0.110E+00 0.200E-03
CGA:  11    -0.112889741020E+04   -0.10821E-01   -0.10821E-01  1320   0.687E-01 0.263E-03
CGA:  12    -0.112890616332E+04   -0.87531E-02   -0.87446E-02  1320   0.422E-01 0.230E-03
CGA:  13    -0.112891085040E+04   -0.46871E-02   -0.46851E-02  1320   0.308E-01 0.113E-03
CGA:  14    -0.112891416335E+04   -0.33130E-02   -0.33128E-02  1320   0.345E-01 0.108E-04
CGA:  15    -0.112891673110E+04   -0.25678E-02   -0.25672E-02  1320   0.220E-01-0.115E-04
CGA:  16    -0.112891868617E+04   -0.19551E-02   -0.19559E-02  1320   0.120E-01 0.278E-04
CGA:  17    -0.112892019594E+04   -0.15098E-02   -0.15101E-02  1320   0.769E-02-0.653E-05
CGA:  18    -0.112892107454E+04   -0.87860E-03   -0.87820E-03  1320   0.417E-02 0.226E-04
CGA:  19    -0.112892157686E+04   -0.50232E-03   -0.50224E-03  1320   0.325E-02 0.551E-05
CGA:  20    -0.112892190992E+04   -0.33307E-03   -0.33307E-03  1320   0.345E-02 0.222E-05
CGA:  21    -0.112892215566E+04   -0.24574E-03   -0.24575E-03  1320   0.186E-02-0.265E-05
CGA:  22    -0.112892234304E+04   -0.18738E-03   -0.18739E-03  1320   0.135E-02-0.668E-05
CGA:  23    -0.112892251527E+04   -0.17223E-03   -0.17245E-03  1320   0.830E-03-0.793E-05
CGA:  24    -0.112892262703E+04   -0.11177E-03   -0.11188E-03  1320   0.478E-03-0.315E-05
CGA:  25    -0.112892268654E+04   -0.59507E-04   -0.59483E-04  1320   0.380E-03 0.112E-05
CGA:  26    -0.112892272177E+04   -0.35226E-04   -0.35242E-04  1320   0.307E-03 0.146E-05
CGA:  27    -0.112892274285E+04   -0.21088E-04   -0.21113E-04  1320   0.159E-03 0.669E-06
CGA:  28    -0.112892275806E+04   -0.15205E-04   -0.15208E-04  1320   0.115E-03 0.455E-06
CGA:  29    -0.112892277264E+04   -0.14576E-04   -0.14579E-04  1320   0.681E-04-0.161E-06
CGA:  30    -0.112892278157E+04   -0.89369E-05   -0.89348E-05  1320   0.509E-04 0.541E-07
  11 F= -.11289228E+04 E0= -.11288991E+04  d E =-.505893E-02  mag=    19.9881
       N       E                     dE             d eps       ncg     rms          ort
SDA:   1    -0.111771274770E+04    0.11210E+02    0.00000E+00  1320   0.407E+02 0.000E+00
CGA:   2    -0.112440717536E+04   -0.66944E+01   -0.67117E+01  1320   0.265E+02-0.217E+00
CGA:   3    -0.112631987942E+04   -0.19127E+01   -0.19316E+01  1320   0.132E+02-0.858E-01
CGA:   4    -0.112797511374E+04   -0.16552E+01   -0.16632E+01  1320   0.682E+01-0.281E+00
CGA:   5    -0.112836411809E+04   -0.38900E+00   -0.39497E+00  1320   0.330E+01-0.598E-01
CGA:   6    -0.112861886604E+04   -0.25475E+00   -0.25418E+00  1320   0.181E+01-0.182E-02
CGA:   7    -0.112878521443E+04   -0.16635E+00   -0.16659E+00  1320   0.457E+00 0.710E-02
CGA:   8    -0.112882465741E+04   -0.39443E-01   -0.39434E-01  1320   0.186E+00-0.124E-03
CGA:   9    -0.112884410820E+04   -0.19451E-01   -0.19451E-01  1320   0.158E+00-0.221E-04
CGA:  10    -0.112885487548E+04   -0.10767E-01   -0.10782E-01  1320   0.748E-01 0.218E-04
CGA:  11    -0.112886116148E+04   -0.62860E-02   -0.62997E-02  1320   0.519E-01 0.266E-03
CGA:  12    -0.112886732562E+04   -0.61641E-02   -0.61625E-02  1320   0.332E-01 0.850E-04
CGA:  13    -0.112887141509E+04   -0.40895E-02   -0.40855E-02  1320   0.210E-01 0.134E-03
CGA:  14    -0.112887381090E+04   -0.23958E-02   -0.23962E-02  1320   0.228E-01-0.238E-04
CGA:  15    -0.112887575672E+04   -0.19458E-02   -0.19469E-02  1320   0.171E-01 0.464E-05
CGA:  16    -0.112887719765E+04   -0.14409E-02   -0.14419E-02  1320   0.915E-02 0.651E-05
CGA:  17    -0.112887827831E+04   -0.10807E-02   -0.10808E-02  1320   0.535E-02-0.721E-05
CGA:  18    -0.112887885853E+04   -0.58022E-03   -0.58016E-03  1320   0.352E-02 0.919E-05
CGA:  19    -0.112887918703E+04   -0.32850E-03   -0.32855E-03  1320   0.259E-02 0.372E-05
CGA:  20    -0.112887938988E+04   -0.20285E-03   -0.20283E-03  1320   0.175E-02-0.312E-06
CGA:  21    -0.112887956579E+04   -0.17591E-03   -0.17591E-03  1320   0.104E-02-0.281E-05
CGA:  22    -0.112887970075E+04   -0.13495E-03   -0.13506E-03  1320   0.793E-03-0.352E-05
CGA:  23    -0.112887978895E+04   -0.88202E-04   -0.88222E-04  1320   0.564E-03-0.232E-05
CGA:  24    -0.112887983684E+04   -0.47891E-04   -0.47898E-04  1320   0.487E-03 0.647E-06
CGA:  25    -0.112887988033E+04   -0.43493E-04   -0.43519E-04  1320   0.274E-03 0.203E-05
CGA:  26    -0.112887991013E+04   -0.29801E-04   -0.29789E-04  1320   0.181E-03 0.175E-05
CGA:  27    -0.112887992974E+04   -0.19601E-04   -0.19599E-04  1320   0.109E-03 0.502E-06
CGA:  28    -0.112887994284E+04   -0.13100E-04   -0.13090E-04  1320   0.115E-03 0.529E-06
CGA:  29    -0.112887995083E+04   -0.79950E-05   -0.80064E-05  1320   0.634E-04 0.297E-06
  12 F= -.11288800E+04 E0= -.11288570E+04  d E =0.428307E-01  mag=    19.9918
       N       E                     dE             d eps       ncg     rms          ort
SDA:   1    -0.112475592343E+04    0.41240E+01    0.00000E+00  1320   0.138E+02 0.000E+00
CGA:   2    -0.112718564423E+04   -0.24297E+01   -0.24193E+01  1320   0.867E+01 0.131E+00
CGA:   3    -0.112793082364E+04   -0.74518E+00   -0.72984E+00  1320   0.759E+01-0.162E+00
CGA:   4    -0.112852750787E+04   -0.59668E+00   -0.59118E+00  1320   0.399E+01-0.362E-01
CGA:   5    -0.112877785639E+04   -0.25035E+00   -0.25441E+00  1320   0.859E+00-0.706E-02
CGA:   6    -0.112887755709E+04   -0.99701E-01   -0.99721E-01  1320   0.573E+00-0.872E-03
CGA:   7    -0.112892306041E+04   -0.45503E-01   -0.45479E-01  1320   0.170E+00-0.189E-03
CGA:   8    -0.112893953687E+04   -0.16476E-01   -0.16476E-01  1320   0.566E-01-0.925E-05
CGA:   9    -0.112894623334E+04   -0.66965E-02   -0.66971E-02  1320   0.395E-01-0.242E-04
CGA:  10    -0.112895029828E+04   -0.40649E-02   -0.40648E-02  1320   0.159E-01 0.531E-04
CGA:  11    -0.112895225949E+04   -0.19612E-02   -0.19607E-02  1320   0.150E-01 0.224E-04
CGA:  12    -0.112895348748E+04   -0.12280E-02   -0.12276E-02  1320   0.114E-01 0.599E-05
CGA:  13    -0.112895435449E+04   -0.86701E-03   -0.86722E-03  1320   0.587E-02 0.966E-05
CGA:  14    -0.112895501863E+04   -0.66414E-03   -0.66400E-03  1320   0.435E-02 0.999E-05
CGA:  15    -0.112895565035E+04   -0.63172E-03   -0.63126E-03  1320   0.310E-02 0.985E-05
CGA:  16    -0.112895599301E+04   -0.34266E-03   -0.34263E-03  1320   0.168E-02 0.455E-05
CGA:  17    -0.112895617837E+04   -0.18536E-03   -0.18536E-03  1320   0.157E-02-0.274E-06
CGA:  18    -0.112895629648E+04   -0.11811E-03   -0.11809E-03  1320   0.959E-03-0.614E-06
CGA:  19    -0.112895637839E+04   -0.81910E-04   -0.81892E-04  1320   0.559E-03-0.166E-05
CGA:  20    -0.112895643719E+04   -0.58801E-04   -0.58808E-04  1320   0.399E-03-0.206E-05
CGA:  21    -0.112895648608E+04   -0.48888E-04   -0.48942E-04  1320   0.262E-03-0.260E-05
CGA:  22    -0.112895652105E+04   -0.34974E-04   -0.35004E-04  1320   0.152E-03-0.102E-05
CGA:  23    -0.112895653902E+04   -0.17963E-04   -0.17969E-04  1320   0.209E-03-0.429E-06
CGA:  24    -0.112895655319E+04   -0.14168E-04   -0.14170E-04  1320   0.823E-04 0.607E-07
CGA:  25    -0.112895656306E+04   -0.98785E-05   -0.98753E-05  1320   0.561E-04 0.184E-06
  13 F= -.11289566E+04 E0= -.11289333E+04  d E =-.766122E-01  mag=    19.9940
       N       E                     dE             d eps       ncg     rms          ort
SDA:   1    -0.112554290095E+04    0.34137E+01    0.00000E+00  1320   0.110E+02 0.000E+00
CGA:   2    -0.112788374186E+04   -0.23408E+01   -0.23406E+01  1320   0.494E+01 0.376E-02
CGA:   3    -0.112838997674E+04   -0.50623E+00   -0.50548E+00  1320   0.430E+01-0.372E-01
CGA:   4    -0.112867990344E+04   -0.28993E+00   -0.28993E+00  1320   0.206E+01 0.334E-03
CGA:   5    -0.112882221139E+04   -0.14231E+00   -0.14289E+00  1320   0.719E+00-0.585E-03
CGA:   6    -0.112890486095E+04   -0.82650E-01   -0.82694E-01  1320   0.437E+00-0.290E-02
CGA:   7    -0.112893509091E+04   -0.30230E-01   -0.30310E-01  1320   0.102E+00-0.216E-04
CGA:   8    -0.112894456176E+04   -0.94708E-02   -0.94705E-02  1320   0.618E-01-0.335E-04
CGA:   9    -0.112894908657E+04   -0.45248E-02   -0.45268E-02  1320   0.460E-01-0.208E-04
CGA:  10    -0.112895320375E+04   -0.41172E-02   -0.41175E-02  1320   0.173E-01 0.246E-05
CGA:  11    -0.112895530698E+04   -0.21032E-02   -0.21025E-02  1320   0.151E-01 0.316E-04
CGA:  12    -0.112895702168E+04   -0.17147E-02   -0.17144E-02  1320   0.112E-01 0.324E-04
CGA:  13    -0.112895815711E+04   -0.11354E-02   -0.11354E-02  1320   0.924E-02 0.104E-04
CGA:  14    -0.112895886026E+04   -0.70315E-03   -0.70281E-03  1320   0.715E-02 0.224E-05
CGA:  15    -0.112895974187E+04   -0.88161E-03   -0.88169E-03  1320   0.505E-02-0.447E-05
CGA:  16    -0.112896033777E+04   -0.59590E-03   -0.59590E-03  1320   0.242E-02 0.652E-06
CGA:  17    -0.112896058849E+04   -0.25072E-03   -0.25072E-03  1320   0.223E-02 0.720E-05
CGA:  18    -0.112896076039E+04   -0.17190E-03   -0.17204E-03  1320   0.141E-02 0.574E-05
CGA:  19    -0.112896088239E+04   -0.12200E-03   -0.12205E-03  1320   0.648E-03 0.288E-05
CGA:  20    -0.112896096362E+04   -0.81231E-04   -0.81268E-04  1320   0.491E-03-0.153E-05
CGA:  21    -0.112896101892E+04   -0.55293E-04   -0.55340E-04  1320   0.435E-03-0.467E-05
CGA:  22    -0.112896105355E+04   -0.34636E-04   -0.34560E-04  1320   0.273E-03-0.338E-05
CGA:  23    -0.112896107664E+04   -0.23085E-04   -0.23050E-04  1320   0.185E-03-0.210E-05
CGA:  24    -0.112896109738E+04   -0.20742E-04   -0.20750E-04  1320   0.135E-03-0.682E-06
CGA:  25    -0.112896111114E+04   -0.13763E-04   -0.13762E-04  1320   0.650E-04 0.360E-06
CGA:  26    -0.112896111848E+04   -0.73392E-05   -0.73276E-05  1320   0.748E-04 0.117E-05
  14 F= -.11289611E+04 E0= -.11289380E+04  d E =-.455542E-02  mag=    19.9950
       N       E                     dE             d eps       ncg     rms          ort
SDA:   1    -0.110041293190E+04    0.28548E+02    0.00000E+00  1320   0.109E+03 0.000E+00
CGA:   2    -0.111608391636E+04   -0.15671E+02   -0.15726E+02  1320   0.502E+02-0.935E+00
CGA:   3    -0.112236726821E+04   -0.62834E+01   -0.62741E+01  1320   0.417E+02 0.223E+00
CGA:   4    -0.112601847644E+04   -0.36512E+01   -0.35998E+01  1320   0.272E+02-0.624E+00
CGA:   5    -0.112740472647E+04   -0.13863E+01   -0.13837E+01  1320   0.677E+01-0.417E-01
CGA:   6    -0.112805103906E+04   -0.64631E+00   -0.64662E+00  1320   0.259E+01 0.297E-01
CGA:   7    -0.112833762463E+04   -0.28659E+00   -0.28620E+00  1320   0.127E+01 0.242E-01
CGA:   8    -0.112842487988E+04   -0.87255E-01   -0.86910E-01  1320   0.642E+00 0.481E-03
CGA:   9    -0.112846803946E+04   -0.43160E-01   -0.43129E-01  1320   0.299E+00 0.136E-03
CGA:  10    -0.112849862367E+04   -0.30584E-01   -0.30578E-01  1320   0.174E+00 0.717E-03
CGA:  11    -0.112851548030E+04   -0.16857E-01   -0.16859E-01  1320   0.948E-01 0.720E-03
CGA:  12    -0.112852514766E+04   -0.96674E-02   -0.96687E-02  1320   0.749E-01-0.164E-03
CGA:  13    -0.112853220309E+04   -0.70554E-02   -0.70577E-02  1320   0.523E-01 0.306E-03
CGA:  14    -0.112853577485E+04   -0.35718E-02   -0.35824E-02  1320   0.316E-01 0.371E-04
CGA:  15    -0.112853968876E+04   -0.39139E-02   -0.39151E-02  1320   0.210E-01-0.309E-04
CGA:  16    -0.112854246775E+04   -0.27790E-02   -0.27785E-02  1320   0.144E-01 0.107E-04
CGA:  17    -0.112854387957E+04   -0.14118E-02   -0.14118E-02  1320   0.129E-01 0.154E-05
CGA:  18    -0.112854477387E+04   -0.89430E-03   -0.89438E-03  1320   0.670E-02 0.504E-05
CGA:  19    -0.112854549929E+04   -0.72543E-03   -0.72546E-03  1320   0.380E-02-0.273E-05
CGA:  20    -0.112854594724E+04   -0.44794E-03   -0.44808E-03  1320   0.263E-02-0.724E-05
CGA:  21    -0.112854621088E+04   -0.26364E-03   -0.26365E-03  1320   0.233E-02-0.770E-05
CGA:  22    -0.112854639976E+04   -0.18888E-03   -0.18875E-03  1320   0.170E-02-0.659E-05
CGA:  23    -0.112854656350E+04   -0.16374E-03   -0.16373E-03  1320   0.103E-02-0.535E-05
CGA:  24    -0.112854668268E+04   -0.11919E-03   -0.11925E-03  1320   0.723E-03-0.334E-05
CGA:  25    -0.112854675738E+04   -0.74695E-04   -0.74705E-04  1320   0.558E-03-0.197E-05
CGA:  26    -0.112854680902E+04   -0.51641E-04   -0.51636E-04  1320   0.404E-03-0.719E-06
CGA:  27    -0.112854683929E+04   -0.30273E-04   -0.30269E-04  1320   0.248E-03-0.362E-06
CGA:  28    -0.112854686651E+04   -0.27216E-04   -0.27209E-04  1320   0.161E-03 0.533E-06
CGA:  29    -0.112854688532E+04   -0.18811E-04   -0.18786E-04  1320   0.121E-03 0.137E-05
CGA:  30    -0.112854689846E+04   -0.13139E-04   -0.13132E-04  1320   0.107E-03 0.763E-06
CGA:  31    -0.112854690731E+04   -0.88469E-05   -0.88398E-05  1320   0.947E-04-0.368E-06
  15 F= -.11285469E+04 E0= -.11285227E+04  d E =0.414211E+00  mag=    19.9797
       N       E                     dE             d eps       ncg     rms          ort
SDA:   1    -0.111974678778E+04    0.88001E+01    0.00000E+00  1320   0.387E+02 0.000E+00
CGA:   2    -0.112506078507E+04   -0.53140E+01   -0.53065E+01  1320   0.147E+02 0.161E+00
CGA:   3    -0.112643018856E+04   -0.13694E+01   -0.13634E+01  1320   0.183E+02-0.279E+00
CGA:   4    -0.112804704845E+04   -0.16169E+01   -0.16153E+01  1320   0.103E+02-0.463E-01
CGA:   5    -0.112860334657E+04   -0.55630E+00   -0.58674E+00  1320   0.221E+01-0.196E+00
CGA:   6    -0.112877775060E+04   -0.17440E+00   -0.17436E+00  1320   0.108E+01-0.130E-02
CGA:   7    -0.112888542078E+04   -0.10767E+00   -0.10767E+00  1320   0.342E+00-0.710E-03
CGA:   8    -0.112891069132E+04   -0.25271E-01   -0.25364E-01  1320   0.251E+00 0.803E-03
CGA:   9    -0.112892758897E+04   -0.16898E-01   -0.16890E-01  1320   0.113E+00-0.286E-04
CGA:  10    -0.112893808064E+04   -0.10492E-01   -0.10494E-01  1320   0.438E-01 0.695E-03
CGA:  11    -0.112894289546E+04   -0.48148E-02   -0.48149E-02  1320   0.304E-01 0.692E-05
CGA:  12    -0.112894664848E+04   -0.37530E-02   -0.37506E-02  1320   0.184E-01 0.692E-04
CGA:  13    -0.112894789179E+04   -0.12433E-02   -0.12443E-02  1320   0.129E-01 0.928E-05
CGA:  14    -0.112894903937E+04   -0.11476E-02   -0.11476E-02  1320   0.826E-02 0.915E-05
CGA:  15    -0.112894988434E+04   -0.84497E-03   -0.84472E-03  1320   0.555E-02 0.245E-04
CGA:  16    -0.112895047704E+04   -0.59270E-03   -0.59247E-03  1320   0.326E-02 0.170E-04
CGA:  17    -0.112895091253E+04   -0.43549E-03   -0.43469E-03  1320   0.235E-02 0.208E-04
CGA:  18    -0.112895114169E+04   -0.22915E-03   -0.22916E-03  1320   0.171E-02 0.997E-05
CGA:  19    -0.112895127829E+04   -0.13660E-03   -0.13664E-03  1320   0.128E-02 0.197E-05
CGA:  20    -0.112895138162E+04   -0.10333E-03   -0.10333E-03  1320   0.727E-03-0.116E-05
CGA:  21    -0.112895145920E+04   -0.77581E-04   -0.77603E-04  1320   0.457E-03-0.201E-05
CGA:  22    -0.112895151998E+04   -0.60775E-04   -0.60863E-04  1320   0.306E-03-0.245E-05
CGA:  23    -0.112895156334E+04   -0.43361E-04   -0.43340E-04  1320   0.224E-03 0.401E-06
CGA:  24    -0.112895159216E+04   -0.28825E-04   -0.28773E-04  1320   0.180E-03 0.181E-05
CGA:  25    -0.112895160822E+04   -0.16059E-04   -0.16059E-04  1320   0.157E-03 0.483E-07
CGA:  26    -0.112895162064E+04   -0.12421E-04   -0.12409E-04  1320   0.997E-04-0.537E-06
CGA:  27    -0.112895163075E+04   -0.10110E-04   -0.10112E-04  1320   0.652E-04-0.107E-05
CGA:  28    -0.112895163806E+04   -0.73137E-05   -0.73275E-05  1320   0.511E-04-0.102E-05
  16 F= -.11289516E+04 E0= -.11289279E+04  d E =-.404731E+00  mag=    19.9847
       N       E                     dE             d eps       ncg     rms          ort
SDA:   1    -0.112884586935E+04    0.10576E+00    0.00000E+00  1320   0.469E+00 0.000E+00
CGA:   2    -0.112890840527E+04   -0.62536E-01   -0.62519E-01  1320   0.264E+00 0.403E-03
CGA:   3    -0.112892890603E+04   -0.20501E-01   -0.20460E-01  1320   0.162E+00-0.280E-03
CGA:   4    -0.112895054430E+04   -0.21638E-01   -0.21619E-01  1320   0.133E+00 0.456E-03
CGA:   5    -0.112895696645E+04   -0.64221E-02   -0.64201E-02  1320   0.296E-01 0.153E-04
CGA:   6    -0.112895937424E+04   -0.24078E-02   -0.24068E-02  1320   0.149E-01-0.170E-04
CGA:   7    -0.112896081161E+04   -0.14374E-02   -0.14374E-02  1320   0.505E-02 0.708E-05
CGA:   8    -0.112896126897E+04   -0.45737E-03   -0.45733E-03  1320   0.210E-02-0.185E-05
CGA:   9    -0.112896144672E+04   -0.17774E-03   -0.17774E-03  1320   0.160E-02-0.102E-05
CGA:  10    -0.112896155790E+04   -0.11118E-03   -0.11117E-03  1320   0.752E-03-0.895E-06
CGA:  11    -0.112896162926E+04   -0.71356E-04   -0.71359E-04  1320   0.368E-03 0.184E-05
CGA:  12    -0.112896167442E+04   -0.45162E-04   -0.45113E-04  1320   0.278E-03 0.186E-05
CGA:  13    -0.112896170189E+04   -0.27472E-04   -0.27472E-04  1320   0.173E-03 0.145E-05
CGA:  14    -0.112896171572E+04   -0.13833E-04   -0.13844E-04  1320   0.131E-03 0.605E-06
CGA:  15    -0.112896172713E+04   -0.11411E-04   -0.11412E-04  1320   0.982E-04 0.135E-06
CGA:  16    -0.112896173911E+04   -0.11974E-04   -0.11996E-04  1320   0.535E-04-0.868E-06
CGA:  17    -0.112896174510E+04   -0.59891E-05   -0.59918E-05  1320   0.436E-04-0.220E-06
  17 F= -.11289617E+04 E0= -.11289381E+04  d E =-.101070E-01  mag=    19.9857
       N       E                     dE             d eps       ncg     rms          ort
SDA:   1    -0.112879126312E+04    0.17048E+00    0.00000E+00  1320   0.667E+00 0.000E+00
CGA:   2    -0.112888925707E+04   -0.97994E-01   -0.97958E-01  1320   0.445E+00 0.647E-03
CGA:   3    -0.112891571239E+04   -0.26455E-01   -0.26313E-01  1320   0.287E+00 0.794E-03
CGA:   4    -0.112894799505E+04   -0.32283E-01   -0.32278E-01  1320   0.185E+00 0.237E-03
CGA:   5    -0.112896120984E+04   -0.13215E-01   -0.13223E-01  1320   0.339E-01 0.562E-04
CGA:   6    -0.112896557794E+04   -0.43681E-02   -0.43714E-02  1320   0.250E-01-0.805E-04
CGA:   7    -0.112896714686E+04   -0.15689E-02   -0.15709E-02  1320   0.967E-02-0.145E-05
CGA:   8    -0.112896773306E+04   -0.58621E-03   -0.58697E-03  1320   0.348E-02 0.207E-05
CGA:   9    -0.112896811791E+04   -0.38485E-03   -0.38475E-03  1320   0.191E-02 0.677E-05
CGA:  10    -0.112896829455E+04   -0.17663E-03   -0.17665E-03  1320   0.101E-02 0.378E-05
CGA:  11    -0.112896838808E+04   -0.93534E-04   -0.93548E-04  1320   0.837E-03 0.339E-05
CGA:  12    -0.112896845767E+04   -0.69592E-04   -0.69632E-04  1320   0.580E-03 0.290E-05
CGA:  13    -0.112896850609E+04   -0.48413E-04   -0.48437E-04  1320   0.266E-03 0.191E-05
CGA:  14    -0.112896854183E+04   -0.35741E-04   -0.35787E-04  1320   0.219E-03-0.117E-05
CGA:  15    -0.112896856396E+04   -0.22130E-04   -0.22138E-04  1320   0.202E-03-0.177E-05
CGA:  16    -0.112896858053E+04   -0.16577E-04   -0.16547E-04  1320   0.128E-03-0.207E-05
CGA:  17    -0.112896859115E+04   -0.10614E-04   -0.10596E-04  1320   0.830E-04-0.144E-05
CGA:  18    -0.112896859962E+04   -0.84699E-05   -0.84802E-05  1320   0.455E-04-0.134E-05
  18 F= -.11289686E+04 E0= -.11289450E+04  d E =-.685452E-02  mag=    19.9871
       N       E                     dE             d eps       ncg     rms          ort
SDA:   1    -0.112885065564E+04    0.11794E+00    0.00000E+00  1320   0.465E+00 0.000E+00
CGA:   2    -0.112890062689E+04   -0.49971E-01   -0.49995E-01  1320   0.634E+00-0.135E-02
CGA:   3    -0.112893701877E+04   -0.36392E-01   -0.36502E-01  1320   0.135E+00-0.528E-03
CGA:   4    -0.112896012238E+04   -0.23104E-01   -0.23104E-01  1320   0.888E-01 0.573E-05
CGA:   5    -0.112896629958E+04   -0.61772E-02   -0.61827E-02  1320   0.277E-01 0.281E-04
CGA:   6    -0.112896935031E+04   -0.30507E-02   -0.30511E-02  1320   0.180E-01-0.214E-04
CGA:   7    -0.112897054320E+04   -0.11929E-02   -0.11926E-02  1320   0.812E-02-0.361E-05
CGA:   8    -0.112897101517E+04   -0.47197E-03   -0.47147E-03  1320   0.202E-02 0.389E-05
CGA:   9    -0.112897125606E+04   -0.24089E-03   -0.24080E-03  1320   0.158E-02 0.344E-05
CGA:  10    -0.112897139578E+04   -0.13973E-03   -0.13974E-03  1320   0.583E-03 0.196E-05
CGA:  11    -0.112897146294E+04   -0.67158E-04   -0.67092E-04  1320   0.662E-03 0.339E-05
CGA:  12    -0.112897151537E+04   -0.52426E-04   -0.52496E-04  1320   0.406E-03 0.389E-05
CGA:  13    -0.112897154865E+04   -0.33286E-04   -0.33305E-04  1320   0.226E-03 0.143E-05
CGA:  14    -0.112897157394E+04   -0.25288E-04   -0.25309E-04  1320   0.180E-03-0.125E-05
CGA:  15    -0.112897159928E+04   -0.25333E-04   -0.25478E-04  1320   0.131E-03-0.314E-05
CGA:  16    -0.112897161034E+04   -0.11060E-04   -0.11052E-04  1320   0.107E-03-0.623E-06
CGA:  17    -0.112897161819E+04   -0.78509E-05   -0.78420E-05  1320   0.599E-04-0.374E-06
  19 F= -.11289716E+04 E0= -.11289481E+04  d E =-.301857E-02  mag=    19.9882
       N       E                     dE             d eps       ncg     rms          ort
SDA:   1    -0.112753969206E+04    0.14319E+01    0.00000E+00  1320   0.483E+01 0.000E+00
CGA:   2    -0.112839377613E+04   -0.85408E+00   -0.85564E+00  1320   0.417E+01-0.190E-01
CGA:   3    -0.112861256822E+04   -0.21879E+00   -0.22560E+00  1320   0.201E+01-0.516E-01
CGA:   4    -0.112881605132E+04   -0.20348E+00   -0.20347E+00  1320   0.119E+01 0.152E-02
CGA:   5    -0.112890655879E+04   -0.90507E-01   -0.90475E-01  1320   0.359E+00-0.713E-04
CGA:   6    -0.112894050514E+04   -0.33946E-01   -0.33948E-01  1320   0.230E+00 0.276E-03
CGA:   7    -0.112896041799E+04   -0.19913E-01   -0.19898E-01  1320   0.904E-01-0.461E-03
CGA:   8    -0.112896525095E+04   -0.48330E-02   -0.48194E-02  1320   0.307E-01 0.109E-03
CGA:   9    -0.112896813866E+04   -0.28877E-02   -0.28879E-02  1320   0.182E-01 0.736E-04
CGA:  10    -0.112897012604E+04   -0.19874E-02   -0.19883E-02  1320   0.850E-02-0.346E-04
CGA:  11    -0.112897092423E+04   -0.79819E-03   -0.79826E-03  1320   0.743E-02 0.265E-04
CGA:  12    -0.112897158674E+04   -0.66251E-03   -0.66264E-03  1320   0.581E-02 0.183E-04
CGA:  13    -0.112897207824E+04   -0.49150E-03   -0.49163E-03  1320   0.307E-02 0.101E-04
CGA:  14    -0.112897245716E+04   -0.37892E-03   -0.37893E-03  1320   0.226E-02 0.327E-07
CGA:  15    -0.112897271839E+04   -0.26123E-03   -0.26136E-03  1320   0.235E-02-0.699E-05
CGA:  16    -0.112897291663E+04   -0.19824E-03   -0.19815E-03  1320   0.151E-02-0.727E-05
CGA:  17    -0.112897303269E+04   -0.11607E-03   -0.11602E-03  1320   0.820E-03-0.336E-05
CGA:  18    -0.112897312789E+04   -0.95196E-04   -0.95179E-04  1320   0.469E-03 0.900E-06
CGA:  19    -0.112897318039E+04   -0.52502E-04   -0.52501E-04  1320   0.369E-03-0.887E-07
CGA:  20    -0.112897320527E+04   -0.24884E-04   -0.24871E-04  1320   0.206E-03-0.341E-06
CGA:  21    -0.112897322923E+04   -0.23952E-04   -0.23974E-04  1320   0.180E-03-0.110E-05
CGA:  22    -0.112897324626E+04   -0.17038E-04   -0.17037E-04  1320   0.105E-03-0.586E-06
CGA:  23    -0.112897325729E+04   -0.11028E-04   -0.11028E-04  1320   0.733E-04 0.625E-07
CGA:  24    -0.112897326448E+04   -0.71913E-05   -0.71909E-05  1320   0.727E-04 0.102E-05
  20 F= -.11289733E+04 E0= -.11289498E+04  d E =-.164630E-02  mag=    19.9909
       N       E                     dE             d eps       ncg     rms          ort
SDA:   1    -0.112552502468E+04    0.34482E+01    0.00000E+00  1320   0.107E+02 0.000E+00
CGA:   2    -0.112791065515E+04   -0.23856E+01   -0.23872E+01  1320   0.482E+01-0.123E-01
CGA:   3    -0.112842024240E+04   -0.50959E+00   -0.50932E+00  1320   0.354E+01 0.472E-01
CGA:   4    -0.112871443327E+04   -0.29419E+00   -0.29253E+00  1320   0.200E+01-0.196E-01
CGA:   5    -0.112883163848E+04   -0.11721E+00   -0.11807E+00  1320   0.731E+00-0.419E-02
CGA:   6    -0.112890979040E+04   -0.78152E-01   -0.78140E-01  1320   0.403E+00 0.974E-03
CGA:   7    -0.112893757927E+04   -0.27789E-01   -0.27785E-01  1320   0.947E-01-0.240E-04
CGA:   8    -0.112894672215E+04   -0.91429E-02   -0.91429E-02  1320   0.516E-01-0.110E-04
CGA:   9    -0.112895178034E+04   -0.50582E-02   -0.50582E-02  1320   0.428E-01-0.212E-04
CGA:  10    -0.112895465200E+04   -0.28717E-02   -0.28651E-02  1320   0.197E-01 0.823E-05
CGA:  11    -0.112895667556E+04   -0.20236E-02   -0.20232E-02  1320   0.136E-01 0.463E-04
CGA:  12    -0.112895851427E+04   -0.18387E-02   -0.18375E-02  1320   0.886E-02 0.318E-04
CGA:  13    -0.112895951012E+04   -0.99585E-03   -0.99557E-03  1320   0.779E-02 0.167E-04
CGA:  14    -0.112896024174E+04   -0.73162E-03   -0.73154E-03  1320   0.713E-02-0.804E-05
CGA:  15    -0.112896089306E+04   -0.65132E-03   -0.65124E-03  1320   0.535E-02-0.123E-04
CGA:  16    -0.112896140455E+04   -0.51150E-03   -0.51147E-03  1320   0.243E-02-0.749E-05
CGA:  17    -0.112896169342E+04   -0.28887E-03   -0.28884E-03  1320   0.166E-02 0.178E-05
CGA:  18    -0.112896187805E+04   -0.18463E-03   -0.18455E-03  1320   0.141E-02 0.584E-05
CGA:  19    -0.112896197316E+04   -0.95105E-04   -0.95170E-04  1320   0.735E-03 0.178E-05
CGA:  20    -0.112896205081E+04   -0.77652E-04   -0.77652E-04  1320   0.512E-03 0.219E-06
CGA:  21    -0.112896211707E+04   -0.66264E-04   -0.66352E-04  1320   0.461E-03-0.291E-05
CGA:  22    -0.112896215618E+04   -0.39111E-04   -0.39071E-04  1320   0.207E-03-0.239E-05
CGA:  23    -0.112896218114E+04   -0.24953E-04   -0.24987E-04  1320   0.270E-03-0.160E-05
CGA:  24    -0.112896220170E+04   -0.20562E-04   -0.20549E-04  1320   0.137E-03-0.541E-06
CGA:  25    -0.112896221568E+04   -0.13978E-04   -0.13977E-04  1320   0.620E-04 0.288E-06
CGA:  26    -0.112896222489E+04   -0.92177E-05   -0.91526E-05  1320   0.585E-04 0.136E-05
  21 F= -.11289622E+04 E0= -.11289390E+04  d E =0.110396E-01  mag=    19.9933
       N       E                     dE             d eps       ncg     rms          ort
SDA:   1    -0.112627966742E+04    0.26825E+01    0.00000E+00  1320   0.830E+01 0.000E+00
CGA:   2    -0.112810084178E+04   -0.18212E+01   -0.18238E+01  1320   0.448E+01-0.221E-01
CGA:   3    -0.112850585354E+04   -0.40501E+00   -0.40716E+00  1320   0.275E+01 0.449E-01
CGA:   4    -0.112876740484E+04   -0.26155E+00   -0.26109E+00  1320   0.151E+01-0.139E-01
CGA:   5    -0.112886376130E+04   -0.96356E-01   -0.96050E-01  1320   0.642E+00 0.129E-02
CGA:   6    -0.112891640340E+04   -0.52642E-01   -0.52889E-01  1320   0.375E+00 0.294E-02
CGA:   7    -0.112894596314E+04   -0.29560E-01   -0.29450E-01  1320   0.893E-01-0.814E-03
CGA:   8    -0.112895438472E+04   -0.84216E-02   -0.84230E-02  1320   0.354E-01 0.820E-04
CGA:   9    -0.112895861835E+04   -0.42336E-02   -0.42336E-02  1320   0.341E-01 0.107E-05
CGA:  10    -0.112896091847E+04   -0.23001E-02   -0.23012E-02  1320   0.166E-01 0.161E-05
CGA:  11    -0.112896238445E+04   -0.14660E-02   -0.14660E-02  1320   0.112E-01 0.111E-04
CGA:  12    -0.112896377767E+04   -0.13932E-02   -0.13923E-02  1320   0.792E-02 0.340E-04
CGA:  13    -0.112896470222E+04   -0.92455E-03   -0.92435E-03  1320   0.544E-02 0.117E-04
CGA:  14    -0.112896530359E+04   -0.60137E-03   -0.60146E-03  1320   0.519E-02-0.641E-05
CGA:  15    -0.112896582233E+04   -0.51874E-03   -0.51875E-03  1320   0.488E-02-0.197E-05
CGA:  16    -0.112896619636E+04   -0.37403E-03   -0.37424E-03  1320   0.223E-02-0.209E-05
CGA:  17    -0.112896642236E+04   -0.22600E-03   -0.22600E-03  1320   0.131E-02 0.234E-05
CGA:  18    -0.112896659191E+04   -0.16955E-03   -0.16936E-03  1320   0.870E-03 0.673E-05
CGA:  19    -0.112896667168E+04   -0.79768E-04   -0.79781E-04  1320   0.632E-03 0.146E-05
CGA:  20    -0.112896672531E+04   -0.53630E-04   -0.53599E-04  1320   0.469E-03-0.180E-05
CGA:  21    -0.112896677022E+04   -0.44910E-04   -0.44897E-04  1320   0.335E-03-0.281E-05
CGA:  22    -0.112896680595E+04   -0.35732E-04   -0.35755E-04  1320   0.182E-03-0.344E-05
CGA:  23    -0.112896682954E+04   -0.23590E-04   -0.23654E-04  1320   0.141E-03-0.209E-05
CGA:  24    -0.112896684221E+04   -0.12665E-04   -0.12665E-04  1320   0.128E-03 0.214E-07
CGA:  25    -0.112896685260E+04   -0.10387E-04   -0.10410E-04  1320   0.622E-04 0.108E-05
CGA:  26    -0.112896685913E+04   -0.65303E-05   -0.65284E-05  1320   0.403E-04 0.670E-06
  22 F= -.11289669E+04 E0= -.11289435E+04  d E =-.463423E-02  mag=    19.9931
       N       E                     dE             d eps       ncg     rms          ort
SDA:   1    -0.111937346935E+04    0.95934E+01    0.00000E+00  1320   0.302E+02 0.000E+00
CGA:   2    -0.112545134607E+04   -0.60779E+01   -0.61059E+01  1320   0.199E+02-0.283E+00
CGA:   3    -0.112703874682E+04   -0.15874E+01   -0.16224E+01  1320   0.121E+02 0.388E+00
CGA:   4    -0.112802853485E+04   -0.98979E+00   -0.97505E+00  1320   0.789E+01-0.687E-01
CGA:   5    -0.112855403445E+04   -0.52550E+00   -0.52332E+00  1320   0.187E+01 0.833E-03
CGA:   6    -0.112877549298E+04   -0.22146E+00   -0.22103E+00  1320   0.136E+01 0.165E-01
CGA:   7    -0.112887676547E+04   -0.10127E+00   -0.10094E+00  1320   0.376E+00-0.933E-03
CGA:   8    -0.112890404403E+04   -0.27279E-01   -0.27279E-01  1320   0.192E+00 0.381E-04
CGA:   9    -0.112891870188E+04   -0.14658E-01   -0.14692E-01  1320   0.122E+00 0.280E-03
CGA:  10    -0.112893033386E+04   -0.11632E-01   -0.11630E-01  1320   0.606E-01-0.235E-03
CGA:  11    -0.112893630620E+04   -0.59723E-02   -0.59723E-02  1320   0.385E-01 0.163E-04
CGA:  12    -0.112894079002E+04   -0.44838E-02   -0.44845E-02  1320   0.349E-01-0.498E-05
CGA:  13    -0.112894379047E+04   -0.30004E-02   -0.30031E-02  1320   0.243E-01 0.879E-04
CGA:  14    -0.112894571308E+04   -0.19226E-02   -0.19234E-02  1320   0.158E-01 0.211E-04
CGA:  15    -0.112894774159E+04   -0.20285E-02   -0.20287E-02  1320   0.134E-01-0.469E-05
CGA:  16    -0.112894932333E+04   -0.15817E-02   -0.15815E-02  1320   0.770E-02 0.823E-05
CGA:  17    -0.112894996858E+04   -0.64525E-03   -0.64518E-03  1320   0.613E-02 0.372E-05
CGA:  18    -0.112895047006E+04   -0.50148E-03   -0.50155E-03  1320   0.358E-02 0.895E-05
CGA:  19    -0.112895085455E+04   -0.38449E-03   -0.38441E-03  1320   0.176E-02 0.769E-05
CGA:  20    -0.112895105316E+04   -0.19861E-03   -0.19870E-03  1320   0.151E-02-0.632E-05
CGA:  21    -0.112895119373E+04   -0.14056E-03   -0.14052E-03  1320   0.129E-02-0.732E-05
CGA:  22    -0.112895130005E+04   -0.10632E-03   -0.10623E-03  1320   0.705E-03-0.597E-05
CGA:  23    -0.112895137318E+04   -0.73135E-04   -0.73164E-04  1320   0.549E-03-0.487E-05
CGA:  24    -0.112895143002E+04   -0.56834E-04   -0.56844E-04  1320   0.368E-03-0.183E-05
CGA:  25    -0.112895146794E+04   -0.37921E-04   -0.37916E-04  1320   0.247E-03 0.122E-05
CGA:  26    -0.112895148715E+04   -0.19214E-04   -0.19244E-04  1320   0.182E-03 0.140E-05
CGA:  27    -0.112895150575E+04   -0.18602E-04   -0.18599E-04  1320   0.101E-03 0.713E-06
CGA:  28    -0.112895151706E+04   -0.11305E-04   -0.11304E-04  1320   0.670E-04 0.109E-06
CGA:  29    -0.112895152406E+04   -0.69962E-05   -0.69990E-05  1320   0.644E-04-0.489E-06
  23 F= -.11289515E+04 E0= -.11289275E+04  d E =0.153351E-01  mag=    19.9889
       N       E                     dE             d eps       ncg     rms          ort
SDA:   1    -0.112828216049E+04    0.66936E+00    0.00000E+00  1320   0.266E+01 0.000E+00
CGA:   2    -0.112864596226E+04   -0.36380E+00   -0.36306E+00  1320   0.180E+01 0.152E-01
CGA:   3    -0.112876357687E+04   -0.11761E+00   -0.11667E+00  1320   0.118E+01 0.150E-02
CGA:   4    -0.112888550292E+04   -0.12193E+00   -0.12190E+00  1320   0.809E+00 0.389E-02
CGA:   5    -0.112894766716E+04   -0.62164E-01   -0.62122E-01  1320   0.167E+00-0.420E-03
CGA:   6    -0.112896138551E+04   -0.13718E-01   -0.13707E-01  1320   0.885E-01-0.223E-03
CGA:   7    -0.112897012075E+04   -0.87352E-02   -0.87355E-02  1320   0.337E-01-0.752E-04
CGA:   8    -0.112897303054E+04   -0.29098E-02   -0.29088E-02  1320   0.151E-01-0.412E-04
CGA:   9    -0.112897402777E+04   -0.99723E-03   -0.99755E-03  1320   0.894E-02-0.697E-05
CGA:  10    -0.112897481702E+04   -0.78925E-03   -0.78928E-03  1320   0.448E-02-0.254E-06
CGA:  11    -0.112897524574E+04   -0.42872E-03   -0.42873E-03  1320   0.224E-02-0.440E-05
CGA:  12    -0.112897551162E+04   -0.26587E-03   -0.26586E-03  1320   0.155E-02 0.356E-06
CGA:  13    -0.112897567173E+04   -0.16012E-03   -0.16010E-03  1320   0.113E-02 0.242E-05
CGA:  14    -0.112897575456E+04   -0.82822E-04   -0.82877E-04  1320   0.743E-03 0.252E-05
CGA:  15    -0.112897582541E+04   -0.70851E-04   -0.70851E-04  1320   0.528E-03 0.220E-05
CGA:  16    -0.112897588622E+04   -0.60811E-04   -0.60746E-04  1320   0.318E-03 0.334E-05
CGA:  17    -0.112897592612E+04   -0.39898E-04   -0.39816E-04  1320   0.217E-03 0.287E-05
CGA:  18    -0.112897594534E+04   -0.19226E-04   -0.19238E-04  1320   0.178E-03 0.128E-05
CGA:  19    -0.112897596027E+04   -0.14926E-04   -0.14932E-04  1320   0.106E-03 0.365E-06
CGA:  20    -0.112897596954E+04   -0.92673E-05   -0.92672E-05  1320   0.685E-04-0.273E-07
  24 F= -.11289760E+04 E0= -.11289520E+04  d E =-.244455E-01  mag=    19.9890
       N       E                     dE             d eps       ncg     rms          ort
SDA:   1    -0.112864484502E+04    0.33112E+00    0.00000E+00  1320   0.102E+01 0.000E+00
CGA:   2    -0.112885389418E+04   -0.20905E+00   -0.20932E+00  1320   0.918E+00-0.245E-02
CGA:   3    -0.112891057309E+04   -0.56679E-01   -0.56841E-01  1320   0.308E+00-0.899E-03
CGA:   4    -0.112895194828E+04   -0.41375E-01   -0.41363E-01  1320   0.181E+00 0.270E-03
CGA:   5    -0.112896440769E+04   -0.12459E-01   -0.12422E-01  1320   0.857E-01-0.707E-05
CGA:   6    -0.112897037969E+04   -0.59720E-02   -0.59788E-02  1320   0.482E-01 0.956E-05
CGA:   7    -0.112897458523E+04   -0.42055E-02   -0.42041E-02  1320   0.113E-01-0.506E-04
CGA:   8    -0.112897559442E+04   -0.10092E-02   -0.10092E-02  1320   0.474E-02-0.211E-05
CGA:   9    -0.112897612682E+04   -0.53241E-03   -0.53244E-03  1320   0.401E-02-0.193E-05
CGA:  10    -0.112897644338E+04   -0.31655E-03   -0.31661E-03  1320   0.232E-02 0.751E-06
CGA:  11    -0.112897661507E+04   -0.17169E-03   -0.17175E-03  1320   0.139E-02 0.314E-05
CGA:  12    -0.112897678287E+04   -0.16780E-03   -0.16766E-03  1320   0.120E-02 0.562E-05
CGA:  13    -0.112897690873E+04   -0.12586E-03   -0.12584E-03  1320   0.655E-03 0.336E-05
CGA:  14    -0.112897699044E+04   -0.81716E-04   -0.81773E-04  1320   0.615E-03-0.196E-05
CGA:  15    -0.112897706181E+04   -0.71365E-04   -0.71393E-04  1320   0.642E-03-0.173E-05
CGA:  16    -0.112897710436E+04   -0.42546E-04   -0.42538E-04  1320   0.280E-03-0.548E-06
CGA:  17    -0.112897713180E+04   -0.27448E-04   -0.27448E-04  1320   0.163E-03 0.197E-05
CGA:  18    -0.112897715046E+04   -0.18660E-04   -0.18627E-04  1320   0.110E-03 0.223E-05
CGA:  19    -0.112897716126E+04   -0.10797E-04   -0.10797E-04  1320   0.568E-04 0.374E-06
CGA:  20    -0.112897716735E+04   -0.60853E-05   -0.60961E-05  1320   0.644E-04-0.131E-05
  25 F= -.11289772E+04 E0= -.11289533E+04  d E =-.119781E-02  mag=    19.9893
       N       E                     dE             d eps       ncg     rms          ort
SDA:   1    -0.112554066916E+04    0.34365E+01    0.00000E+00  1320   0.103E+02 0.000E+00
CGA:   2    -0.112771952310E+04   -0.21789E+01   -0.21835E+01  1320   0.102E+02-0.457E-01
CGA:   3    -0.112821075684E+04   -0.49123E+00   -0.50402E+00  1320   0.411E+01-0.117E+00
CGA:   4    -0.112866334176E+04   -0.45258E+00   -0.45253E+00  1320   0.215E+01 0.275E-02
CGA:   5    -0.112885271481E+04   -0.18937E+00   -0.18914E+00  1320   0.612E+00-0.596E-02
CGA:   6    -0.112892054887E+04   -0.67834E-01   -0.67821E-01  1320   0.590E+00 0.779E-03
CGA:   7    -0.112895252938E+04   -0.31981E-01   -0.31947E-01  1320   0.119E+00 0.308E-03
CGA:   8    -0.112896281109E+04   -0.10282E-01   -0.10279E-01  1320   0.521E-01-0.896E-04
CGA:   9    -0.112896887585E+04   -0.60648E-02   -0.60580E-02  1320   0.375E-01 0.238E-03
CGA:  10    -0.112897175610E+04   -0.28802E-02   -0.28756E-02  1320   0.233E-01-0.393E-04
CGA:  11    -0.112897359219E+04   -0.18361E-02   -0.18356E-02  1320   0.137E-01 0.165E-05
CGA:  12    -0.112897538153E+04   -0.17893E-02   -0.17873E-02  1320   0.108E-01 0.541E-04
CGA:  13    -0.112897638926E+04   -0.10077E-02   -0.10077E-02  1320   0.708E-02 0.645E-05
CGA:  14    -0.112897712230E+04   -0.73303E-03   -0.73302E-03  1320   0.694E-02 0.256E-05
CGA:  15    -0.112897778758E+04   -0.66528E-03   -0.66530E-03  1320   0.538E-02 0.152E-05
CGA:  16    -0.112897825099E+04   -0.46341E-03   -0.46341E-03  1320   0.285E-02 0.183E-05
CGA:  17    -0.112897855061E+04   -0.29962E-03   -0.29959E-03  1320   0.171E-02 0.462E-05
CGA:  18    -0.112897872716E+04   -0.17656E-03   -0.17653E-03  1320   0.133E-02 0.578E-05
CGA:  19    -0.112897882585E+04   -0.98685E-04   -0.98731E-04  1320   0.770E-03 0.183E-05
CGA:  20    -0.112897890190E+04   -0.76055E-04   -0.76057E-04  1320   0.488E-03-0.831E-06
CGA:  21    -0.112897895629E+04   -0.54391E-04   -0.54450E-04  1320   0.394E-03-0.418E-05
CGA:  22    -0.112897899612E+04   -0.39830E-04   -0.39843E-04  1320   0.249E-03-0.343E-05
CGA:  23    -0.112897901658E+04   -0.20453E-04   -0.20423E-04  1320   0.216E-03-0.199E-05
CGA:  24    -0.112897903790E+04   -0.21326E-04   -0.21327E-04  1320   0.112E-03-0.106E-05
CGA:  25    -0.112897905185E+04   -0.13948E-04   -0.13930E-04  1320   0.780E-04 0.618E-06
CGA:  26    -0.112897905855E+04   -0.67023E-05   -0.67125E-05  1320   0.612E-04 0.727E-06
  26 F= -.11289791E+04 E0= -.11289550E+04  d E =-.189121E-02  mag=    19.9883
       N       E                     dE             d eps       ncg     rms          ort
SDA:   1    -0.110898800049E+04    0.19991E+02    0.00000E+00  1320   0.840E+02 0.000E+00
CGA:   2    -0.111991684555E+04   -0.10929E+02   -0.10945E+02  1320   0.352E+02-0.500E+00
CGA:   3    -0.112376016731E+04   -0.38433E+01   -0.38447E+01  1320   0.281E+02-0.151E+00
CGA:   4    -0.112661228107E+04   -0.28521E+01   -0.28475E+01  1320   0.203E+02 0.132E+01
CGA:   5    -0.112770578403E+04   -0.10935E+01   -0.10580E+01  1320   0.491E+01 0.581E+00
CGA:   6    -0.112810104815E+04   -0.39526E+00   -0.39295E+00  1320   0.248E+01-0.297E-01
CGA:   7    -0.112831785818E+04   -0.21681E+00   -0.21711E+00  1320   0.104E+01 0.148E-01
CGA:   8    -0.112840695683E+04   -0.89099E-01   -0.89081E-01  1320   0.397E+00-0.491E-03
CGA:   9    -0.112843985061E+04   -0.32894E-01   -0.32954E-01  1320   0.309E+00 0.179E-02
CGA:  10    -0.112845927969E+04   -0.19429E-01   -0.19502E-01  1320   0.154E+00 0.144E-03
CGA:  11    -0.112847218652E+04   -0.12907E-01   -0.12911E-01  1320   0.621E-01 0.201E-03
CGA:  12    -0.112848085045E+04   -0.86639E-02   -0.86570E-02  1320   0.456E-01 0.111E-03
CGA:  13    -0.112848601435E+04   -0.51639E-02   -0.51604E-02  1320   0.243E-01 0.134E-03
CGA:  14    -0.112848840693E+04   -0.23926E-02   -0.23925E-02  1320   0.239E-01 0.196E-04
CGA:  15    -0.112849020755E+04   -0.18006E-02   -0.18024E-02  1320   0.176E-01 0.816E-05
CGA:  16    -0.112849181752E+04   -0.16100E-02   -0.16099E-02  1320   0.107E-01-0.197E-04
CGA:  17    -0.112849289787E+04   -0.10804E-02   -0.10805E-02  1320   0.733E-02-0.190E-04
CGA:  18    -0.112849370454E+04   -0.80667E-03   -0.80684E-03  1320   0.477E-02-0.128E-04
CGA:  19    -0.112849418830E+04   -0.48377E-03   -0.48385E-03  1320   0.279E-02-0.118E-04
CGA:  20    -0.112849442372E+04   -0.23542E-03   -0.23541E-03  1320   0.270E-02-0.136E-05
CGA:  21    -0.112849462979E+04   -0.20606E-03   -0.20611E-03  1320   0.152E-02-0.416E-06
CGA:  22    -0.112849478198E+04   -0.15219E-03   -0.15220E-03  1320   0.980E-03-0.183E-05
CGA:  23    -0.112849490997E+04   -0.12799E-03   -0.12798E-03  1320   0.746E-03 0.584E-07
CGA:  24    -0.112849499667E+04   -0.86699E-04   -0.86747E-04  1320   0.541E-03-0.239E-05
CGA:  25    -0.112849504463E+04   -0.47964E-04   -0.47936E-04  1320   0.491E-03-0.308E-05
CGA:  26    -0.112849508050E+04   -0.35868E-04   -0.35820E-04  1320   0.309E-03-0.198E-05
CGA:  27    -0.112849511070E+04   -0.30204E-04   -0.30204E-04  1320   0.178E-03-0.270E-06
CGA:  28    -0.112849513139E+04   -0.20685E-04   -0.20651E-04  1320   0.106E-03 0.167E-05
CGA:  29    -0.112849514659E+04   -0.15196E-04   -0.15117E-04  1320   0.109E-03 0.176E-05
CGA:  30    -0.112849515427E+04   -0.76886E-05   -0.77116E-05  1320   0.893E-04 0.766E-06
  27 F= -.11284952E+04 E0= -.11284689E+04  d E =0.483904E+00  mag=    19.9904
       N       E                     dE             d eps       ncg     rms          ort
SDA:   1    -0.112576606676E+04    0.27291E+01    0.00000E+00  1320   0.134E+02 0.000E+00
CGA:   2    -0.112734836845E+04   -0.15823E+01   -0.15895E+01  1320   0.935E+01-0.227E+00
CGA:   3    -0.112787323150E+04   -0.52486E+00   -0.56021E+00  1320   0.487E+01-0.121E+00
CGA:   4    -0.112833160570E+04   -0.45837E+00   -0.45825E+00  1320   0.500E+01-0.402E-01
CGA:   5    -0.112870383713E+04   -0.37223E+00   -0.37365E+00  1320   0.104E+01 0.139E-01
CGA:   6    -0.112877686702E+04   -0.73030E-01   -0.73136E-01  1320   0.370E+00 0.410E-03
CGA:   7    -0.112881783798E+04   -0.40971E-01   -0.40973E-01  1320   0.159E+00-0.557E-04
CGA:   8    -0.112883234959E+04   -0.14512E-01   -0.14513E-01  1320   0.574E-01 0.215E-03
CGA:   9    -0.112883821193E+04   -0.58623E-02   -0.58635E-02  1320   0.338E-01-0.105E-03
CGA:  10    -0.112884113155E+04   -0.29196E-02   -0.29212E-02  1320   0.193E-01 0.636E-04
CGA:  11    -0.112884243391E+04   -0.13024E-02   -0.13025E-02  1320   0.119E-01 0.371E-05
CGA:  12    -0.112884345612E+04   -0.10222E-02   -0.10222E-02  1320   0.757E-02 0.459E-05
CGA:  13    -0.112884422591E+04   -0.76979E-03   -0.76972E-03  1320   0.326E-02 0.795E-05
CGA:  14    -0.112884462147E+04   -0.39556E-03   -0.39543E-03  1320   0.228E-02 0.414E-05
CGA:  15    -0.112884488553E+04   -0.26405E-03   -0.26388E-03  1320   0.176E-02 0.797E-05
CGA:  16    -0.112884506324E+04   -0.17771E-03   -0.17766E-03  1320   0.110E-02 0.106E-04
CGA:  17    -0.112884518760E+04   -0.12436E-03   -0.12417E-03  1320   0.101E-02 0.117E-04
CGA:  18    -0.112884525623E+04   -0.68627E-04   -0.68828E-04  1320   0.669E-03 0.600E-05
CGA:  19    -0.112884531750E+04   -0.61271E-04   -0.61290E-04  1320   0.294E-03 0.425E-05
CGA:  20    -0.112884535801E+04   -0.40513E-04   -0.40572E-04  1320   0.253E-03-0.148E-05
CGA:  21    -0.112884538269E+04   -0.24678E-04   -0.24679E-04  1320   0.139E-03-0.180E-05
CGA:  22    -0.112884539859E+04   -0.15898E-04   -0.15899E-04  1320   0.137E-03-0.113E-06
CGA:  23    -0.112884541079E+04   -0.12201E-04   -0.12209E-04  1320   0.113E-03 0.760E-06
CGA:  24    -0.112884541930E+04   -0.85136E-05   -0.85279E-05  1320   0.729E-04 0.593E-06
  28 F= -.11288454E+04 E0= -.11288198E+04  d E =-.350265E+00  mag=    19.9876
       N       E                     dE             d eps       ncg     rms          ort
SDA:   1    -0.112830971482E+04    0.53570E+00    0.00000E+00  1320   0.270E+01 0.000E+00
CGA:   2    -0.112863518777E+04   -0.32547E+00   -0.32630E+00  1320   0.187E+01-0.243E-01
CGA:   3    -0.112873260310E+04   -0.97415E-01   -0.10053E+00  1320   0.937E+00-0.220E-01
CGA:   4    -0.112884406890E+04   -0.11147E+00   -0.11156E+00  1320   0.849E+00-0.267E-02
CGA:   5    -0.112890781904E+04   -0.63750E-01   -0.63924E-01  1320   0.167E+00 0.162E-02
CGA:   6    -0.112892071884E+04   -0.12900E-01   -0.12916E-01  1320   0.800E-01 0.222E-03
CGA:   7    -0.112892723837E+04   -0.65195E-02   -0.65202E-02  1320   0.427E-01 0.328E-04
CGA:   8    -0.112893006000E+04   -0.28216E-02   -0.28171E-02  1320   0.183E-01-0.420E-05
CGA:   9    -0.112893143566E+04   -0.13757E-02   -0.13761E-02  1320   0.776E-02-0.173E-05
CGA:  10    -0.112893227604E+04   -0.84038E-03   -0.84069E-03  1320   0.409E-02-0.175E-04
CGA:  11    -0.112893262600E+04   -0.34996E-03   -0.34997E-03  1320   0.264E-02-0.214E-05
CGA:  12    -0.112893282121E+04   -0.19520E-03   -0.19521E-03  1320   0.172E-02 0.495E-06
CGA:  13    -0.112893299032E+04   -0.16912E-03   -0.16911E-03  1320   0.107E-02 0.714E-06
CGA:  14    -0.112893308164E+04   -0.91321E-04   -0.91335E-04  1320   0.508E-03 0.165E-05
CGA:  15    -0.112893314611E+04   -0.64467E-04   -0.64379E-04  1320   0.482E-03 0.255E-05
CGA:  16    -0.112893318279E+04   -0.36684E-04   -0.36753E-04  1320   0.368E-03 0.396E-05
CGA:  17    -0.112893321503E+04   -0.32235E-04   -0.32267E-04  1320   0.195E-03 0.558E-05
CGA:  18    -0.112893324088E+04   -0.25851E-04   -0.25628E-04  1320   0.140E-03 0.601E-05
CGA:  19    -0.112893325525E+04   -0.14365E-04   -0.14353E-04  1320   0.113E-03 0.247E-05
CGA:  20    -0.112893326352E+04   -0.82712E-05   -0.82835E-05  1320   0.717E-04 0.562E-06
  29 F= -.11289333E+04 E0= -.11289080E+04  d E =-.878442E-01  mag=    19.9864
       N       E                     dE             d eps       ncg     rms          ort
SDA:   1    -0.112728791328E+04    0.16453E+01    0.00000E+00  1320   0.749E+01 0.000E+00
CGA:   2    -0.112818358302E+04   -0.89567E+00   -0.89884E+00  1320   0.452E+01-0.855E-01
CGA:   3    -0.112847725077E+04   -0.29367E+00   -0.30144E+00  1320   0.229E+01 0.176E-01
CGA:   4    -0.112875307612E+04   -0.27583E+00   -0.27699E+00  1320   0.284E+01-0.321E-01
CGA:   5    -0.112891387336E+04   -0.16080E+00   -0.16141E+00  1320   0.493E+00-0.203E-02
CGA:   6    -0.112895035826E+04   -0.36485E-01   -0.36597E-01  1320   0.196E+00 0.145E-02
CGA:   7    -0.112897096191E+04   -0.20604E-01   -0.20610E-01  1320   0.765E-01-0.298E-03
CGA:   8    -0.112897805242E+04   -0.70905E-02   -0.70906E-02  1320   0.360E-01 0.659E-04
CGA:   9    -0.112898059107E+04   -0.25386E-02   -0.25353E-02  1320   0.236E-01-0.314E-04
CGA:  10    -0.112898247116E+04   -0.18801E-02   -0.18797E-02  1320   0.112E-01-0.197E-04
CGA:  11    -0.112898341121E+04   -0.94005E-03   -0.94016E-03  1320   0.546E-02 0.533E-05
CGA:  12    -0.112898405753E+04   -0.64632E-03   -0.64623E-03  1320   0.365E-02 0.349E-05
CGA:  13    -0.112898448223E+04   -0.42470E-03   -0.42460E-03  1320   0.174E-02 0.370E-05
CGA:  14    -0.112898467445E+04   -0.19222E-03   -0.19216E-03  1320   0.138E-02 0.316E-05
CGA:  15    -0.112898481715E+04   -0.14270E-03   -0.14264E-03  1320   0.118E-02 0.586E-05
CGA:  16    -0.112898491107E+04   -0.93919E-04   -0.94033E-04  1320   0.826E-03 0.706E-05
CGA:  17    -0.112898498169E+04   -0.70621E-04   -0.70685E-04  1320   0.519E-03 0.697E-05
CGA:  18    -0.112898504174E+04   -0.60055E-04   -0.59916E-04  1320   0.305E-03 0.655E-05
CGA:  19    -0.112898507883E+04   -0.37082E-04   -0.37019E-04  1320   0.179E-03 0.246E-05
CGA:  20    -0.112898510365E+04   -0.24820E-04   -0.24840E-04  1320   0.147E-03-0.508E-06
CGA:  21    -0.112898511759E+04   -0.13942E-04   -0.13940E-04  1320   0.891E-04-0.805E-06
CGA:  22    -0.112898512968E+04   -0.12092E-04   -0.12105E-04  1320   0.792E-04-0.323E-06
CGA:  23    -0.112898513737E+04   -0.76908E-05   -0.76918E-05  1320   0.691E-04 0.369E-06
  30 F= -.11289851E+04 E0= -.11289606E+04  d E =-.518739E-01  mag=    19.9848
       N       E                     dE             d eps       ncg     rms          ort
SDA:   1    -0.112895880492E+04    0.26325E-01    0.00000E+00  1320   0.146E+00 0.000E+00
CGA:   2    -0.112897072488E+04   -0.11920E-01   -0.11920E-01  1320   0.128E+00 0.201E-04
CGA:   3    -0.112897883712E+04   -0.81122E-02   -0.81149E-02  1320   0.386E-01 0.339E-04
CGA:   4    -0.112898354367E+04   -0.47065E-02   -0.47074E-02  1320   0.410E-01-0.980E-05
CGA:   5    -0.112898705564E+04   -0.35120E-02   -0.35123E-02  1320   0.941E-02 0.383E-04
CGA:   6    -0.112898780008E+04   -0.74444E-03   -0.74474E-03  1320   0.400E-02 0.100E-04
CGA:   7    -0.112898814952E+04   -0.34943E-03   -0.34941E-03  1320   0.217E-02 0.271E-06
CGA:   8    -0.112898829648E+04   -0.14696E-03   -0.14699E-03  1320   0.103E-02 0.131E-05
CGA:   9    -0.112898836584E+04   -0.69359E-04   -0.69465E-04  1320   0.323E-03 0.316E-05
CGA:  10    -0.112898840948E+04   -0.43641E-04   -0.43486E-04  1320   0.158E-03 0.376E-05
CGA:  11    -0.112898842751E+04   -0.18031E-04   -0.18001E-04  1320   0.138E-03 0.165E-05
CGA:  12    -0.112898843683E+04   -0.93170E-05   -0.93346E-05  1320   0.768E-04 0.616E-06
  31 F= -.11289884E+04 E0= -.11289639E+04  d E =-.329946E-02  mag=    19.9853
       N       E                     dE             d eps       ncg     rms          ort
[...]
CGA:  11    -0.112895132122E+04   -0.58610E-03   -0.58594E-03  1320   0.414E-02 0.430E-05
CGA:  12    -0.112895170728E+04   -0.38606E-03   -0.38606E-03  1320   0.328E-02 0.128E-05
CGA:  13    -0.112895197003E+04   -0.26275E-03   -0.26272E-03  1320   0.209E-02 0.466E-06
CGA:  14    -0.112895216496E+04   -0.19492E-03   -0.19492E-03  1320   0.150E-02-0.106E-05
CGA:  15    -0.112895235054E+04   -0.18559E-03   -0.18563E-03  1320   0.114E-02-0.144E-05
CGA:  16    -0.112895247754E+04   -0.12699E-03   -0.12698E-03  1320   0.667E-03 0.112E-05
CGA:  17    -0.112895253662E+04   -0.59082E-04   -0.59099E-04  1320   0.505E-03 0.171E-05
CGA:  18    -0.112895257912E+04   -0.42501E-04   -0.42504E-04  1320   0.329E-03 0.826E-07
CGA:  19    -0.112895260637E+04   -0.27252E-04   -0.27237E-04  1320   0.167E-03-0.106E-05
CGA:  20    -0.112895262467E+04   -0.18297E-04   -0.18321E-04  1320   0.119E-03-0.176E-05
CGA:  21    -0.112895263869E+04   -0.14020E-04   -0.14036E-04  1320   0.812E-04-0.697E-06
CGA:  22    -0.112895264624E+04   -0.75457E-05   -0.75473E-05  1320   0.737E-04 0.292E-06
  95 F= -.11289526E+04 E0= -.11289244E+04  d E =0.592770E-02  mag=    19.9834
       N       E                     dE             d eps       ncg     rms          ort
SDA:   1    -0.112839917405E+04    0.55346E+00    0.00000E+00  1320   0.205E+01 0.000E+00
CGA:   2    -0.112869973367E+04   -0.30056E+00   -0.30034E+00  1320   0.136E+01 0.369E-02
CGA:   3    -0.112878696289E+04   -0.87229E-01   -0.87553E-01  1320   0.957E+00 0.738E-03
CGA:   4    -0.112888894309E+04   -0.10198E+00   -0.10198E+00  1320   0.587E+00-0.250E-03
CGA:   5    -0.112892959742E+04   -0.40654E-01   -0.40470E-01  1320   0.129E+00-0.667E-03
CGA:   6    -0.112894249859E+04   -0.12901E-01   -0.12901E-01  1320   0.606E-01 0.933E-04
CGA:   7    -0.112894824068E+04   -0.57421E-02   -0.57423E-02  1320   0.345E-01 0.508E-04
CGA:   8    -0.112895013697E+04   -0.18963E-02   -0.18946E-02  1320   0.119E-01 0.176E-04
CGA:   9    -0.112895125785E+04   -0.11209E-02   -0.11209E-02  1320   0.558E-02 0.386E-05
CGA:  10    -0.112895191716E+04   -0.65931E-03   -0.65923E-03  1320   0.294E-02 0.347E-05
CGA:  11    -0.112895217816E+04   -0.26099E-03   -0.26102E-03  1320   0.224E-02 0.195E-05
CGA:  12    -0.112895235761E+04   -0.17945E-03   -0.17947E-03  1320   0.149E-02 0.132E-05
CGA:  13    -0.112895250315E+04   -0.14554E-03   -0.14554E-03  1320   0.851E-03 0.135E-05
CGA:  14    -0.112895257940E+04   -0.76247E-04   -0.76254E-04  1320   0.517E-03 0.155E-05
CGA:  15    -0.112895264546E+04   -0.66057E-04   -0.66004E-04  1320   0.446E-03 0.154E-05
CGA:  16    -0.112895268630E+04   -0.40843E-04   -0.40851E-04  1320   0.338E-03 0.167E-05
CGA:  17    -0.112895271212E+04   -0.25820E-04   -0.25837E-04  1320   0.187E-03 0.746E-06
CGA:  18    -0.112895273138E+04   -0.19259E-04   -0.19257E-04  1320   0.133E-03 0.310E-06
CGA:  19    -0.112895274459E+04   -0.13211E-04   -0.13213E-04  1320   0.724E-04-0.425E-06
CGA:  20    -0.112895275209E+04   -0.75017E-05   -0.75021E-05  1320   0.540E-04-0.603E-07
  96 F= -.11289528E+04 E0= -.11289247E+04  d E =-.105857E-03  mag=    19.9844
       N       E                     dE             d eps       ncg     rms          ort
SDA:   1    -0.112873900729E+04    0.21374E+00    0.00000E+00  1320   0.880E+00 0.000E+00
CGA:   2    -0.112886088602E+04   -0.12188E+00   -0.12189E+00  1320   0.536E+00-0.207E-03
CGA:   3    -0.112889441438E+04   -0.33528E-01   -0.33492E-01  1320   0.342E+00 0.166E-03
CGA:   4    -0.112893288778E+04   -0.38473E-01   -0.38433E-01  1320   0.277E+00 0.157E-02
CGA:   5    -0.112895107324E+04   -0.18185E-01   -0.18253E-01  1320   0.450E-01 0.884E-05
CGA:   6    -0.112895587994E+04   -0.48067E-02   -0.48074E-02  1320   0.249E-01-0.298E-04
CGA:   7    -0.112895827985E+04   -0.23999E-02   -0.23999E-02  1320   0.930E-02 0.326E-04
CGA:   8    -0.112895894810E+04   -0.66826E-03   -0.66831E-03  1320   0.490E-02-0.104E-05
CGA:   9    -0.112895929376E+04   -0.34566E-03   -0.34547E-03  1320   0.260E-02-0.342E-05
CGA:  10    -0.112895955442E+04   -0.26066E-03   -0.26067E-03  1320   0.111E-02-0.185E-05
CGA:  11    -0.112895966148E+04   -0.10706E-03   -0.10706E-03  1320   0.758E-03-0.230E-06
CGA:  12    -0.112895974861E+04   -0.87133E-04   -0.87156E-04  1320   0.487E-03-0.123E-05
CGA:  13    -0.112895979146E+04   -0.42846E-04   -0.42846E-04  1320   0.375E-03 0.860E-07
CGA:  14    -0.112895981957E+04   -0.28115E-04   -0.28121E-04  1320   0.206E-03 0.248E-06
CGA:  15    -0.112895984486E+04   -0.25285E-04   -0.25258E-04  1320   0.194E-03 0.946E-06
CGA:  16    -0.112895986233E+04   -0.17471E-04   -0.17477E-04  1320   0.957E-04 0.915E-06
CGA:  17    -0.112895987466E+04   -0.12329E-04   -0.12294E-04  1320   0.708E-04 0.106E-05
CGA:  18    -0.112895988133E+04   -0.66774E-05   -0.66792E-05  1320   0.585E-04 0.437E-06
  97 F= -.11289599E+04 E0= -.11289318E+04  d E =-.712924E-02  mag=    19.9842
       N       E                     dE             d eps       ncg     rms          ort
SDA:   1    -0.112890323109E+04    0.56644E-01    0.00000E+00  1320   0.219E+00 0.000E+00
CGA:   2    -0.112893053873E+04   -0.27308E-01   -0.27336E-01  1320   0.277E+00-0.703E-03
CGA:   3    -0.112894589872E+04   -0.15360E-01   -0.15402E-01  1320   0.748E-01-0.199E-03
CGA:   4    -0.112895372196E+04   -0.78232E-02   -0.78176E-02  1320   0.571E-01 0.347E-03
CGA:   5    -0.112895876123E+04   -0.50393E-02   -0.50391E-02  1320   0.135E-01-0.187E-05
CGA:   6    -0.112896019973E+04   -0.14385E-02   -0.14385E-02  1320   0.927E-02 0.257E-06
CGA:   7    -0.112896102702E+04   -0.82729E-03   -0.82735E-03  1320   0.325E-02 0.789E-05
CGA:   8    -0.112896122657E+04   -0.19955E-03   -0.19968E-03  1320   0.153E-02 0.230E-05
CGA:   9    -0.112896134116E+04   -0.11459E-03   -0.11461E-03  1320   0.651E-03 0.134E-05
CGA:  10    -0.112896142208E+04   -0.80922E-04   -0.80802E-04  1320   0.420E-03 0.380E-05
CGA:  11    -0.112896145845E+04   -0.36372E-04   -0.36379E-04  1320   0.250E-03 0.990E-06
CGA:  12    -0.112896149039E+04   -0.31934E-04   -0.31939E-04  1320   0.222E-03-0.156E-06
CGA:  13    -0.112896151050E+04   -0.20109E-04   -0.20106E-04  1320   0.172E-03-0.720E-06
CGA:  14    -0.112896152336E+04   -0.12860E-04   -0.12849E-04  1320   0.102E-03-0.539E-06
CGA:  15    -0.112896153687E+04   -0.13518E-04   -0.13573E-04  1320   0.945E-04-0.140E-05
CGA:  16    -0.112896154668E+04   -0.98078E-05   -0.98171E-05  1320   0.543E-04-0.971E-06
  98 F= -.11289615E+04 E0= -.11289335E+04  d E =-.166535E-02  mag=    19.9842
       N       E                     dE             d eps       ncg     rms          ort
SDA:   1    -0.112881058959E+04    0.15095E+00    0.00000E+00  1320   0.550E+00 0.000E+00
CGA:   2    -0.112889426320E+04   -0.83674E-01   -0.83546E-01  1320   0.663E+00 0.203E-02
CGA:   3    -0.112892747129E+04   -0.33208E-01   -0.32936E-01  1320   0.168E+00 0.293E-02
CGA:   4    -0.112894588912E+04   -0.18418E-01   -0.18401E-01  1320   0.126E+00 0.887E-03
CGA:   5    -0.112895677963E+04   -0.10891E-01   -0.10884E-01  1320   0.323E-01-0.194E-03
CGA:   6    -0.112896076573E+04   -0.39861E-02   -0.39846E-02  1320   0.211E-01 0.426E-04
CGA:   7    -0.112896260408E+04   -0.18384E-02   -0.18383E-02  1320   0.673E-02 0.382E-06
CGA:   8    -0.112896300242E+04   -0.39833E-03   -0.39855E-03  1320   0.345E-02 0.208E-06
CGA:   9    -0.112896329666E+04   -0.29424E-03   -0.29428E-03  1320   0.166E-02 0.371E-05
CGA:  10    -0.112896350503E+04   -0.20837E-03   -0.20827E-03  1320   0.924E-03 0.319E-05
CGA:  11    -0.112896361251E+04   -0.10748E-03   -0.10745E-03  1320   0.716E-03 0.194E-05
CGA:  12    -0.112896369183E+04   -0.79325E-04   -0.79325E-04  1320   0.755E-03-0.191E-06
CGA:  13    -0.112896375345E+04   -0.61617E-04   -0.61607E-04  1320   0.426E-03-0.522E-06
CGA:  14    -0.112896379132E+04   -0.37868E-04   -0.37862E-04  1320   0.350E-03-0.693E-06
CGA:  15    -0.112896383412E+04   -0.42800E-04   -0.42825E-04  1320   0.270E-03-0.102E-05
CGA:  16    -0.112896386401E+04   -0.29895E-04   -0.29918E-04  1320   0.156E-03-0.185E-05
CGA:  17    -0.112896387870E+04   -0.14683E-04   -0.14680E-04  1320   0.967E-04-0.797E-06
CGA:  18    -0.112896388771E+04   -0.90119E-05   -0.90086E-05  1320   0.960E-04-0.689E-06
  99 F= -.11289639E+04 E0= -.11289358E+04  d E =-.234103E-02  mag=    19.9843
       N       E                     dE             d eps       ncg     rms          ort
SDA:   1    -0.112296902044E+04    0.59949E+01    0.00000E+00  1320   0.205E+02 0.000E+00
CGA:   2    -0.112688259969E+04   -0.39136E+01   -0.39382E+01  1320   0.136E+02-0.249E+00
CGA:   3    -0.112774998018E+04   -0.86738E+00   -0.91242E+00  1320   0.648E+01 0.262E-01
CGA:   4    -0.112841820362E+04   -0.66822E+00   -0.66837E+00  1320   0.526E+01-0.337E-01
CGA:   5    -0.112868095674E+04   -0.26275E+00   -0.27348E+00  1320   0.134E+01-0.934E-01
CGA:   6    -0.112885180917E+04   -0.17085E+00   -0.17086E+00  1320   0.806E+00-0.663E-04
CGA:   7    -0.112891706282E+04   -0.65254E-01   -0.65250E-01  1320   0.203E+00 0.633E-04
CGA:   8    -0.112893503051E+04   -0.17968E-01   -0.17971E-01  1320   0.101E+00 0.143E-03
CGA:   9    -0.112894580800E+04   -0.10777E-01   -0.10775E-01  1320   0.564E-01 0.198E-03
CGA:  10    -0.112895182219E+04   -0.60142E-02   -0.60151E-02  1320   0.301E-01-0.592E-04
CGA:  11    -0.112895584075E+04   -0.40186E-02   -0.40118E-02  1320   0.270E-01 0.158E-03
CGA:  12    -0.112895890807E+04   -0.30673E-02   -0.30672E-02  1320   0.170E-01 0.138E-04
CGA:  13    -0.112896069646E+04   -0.17884E-02   -0.17883E-02  1320   0.166E-01 0.191E-04
CGA:  14    -0.112896203159E+04   -0.13351E-02   -0.13355E-02  1320   0.138E-01 0.107E-05
CGA:  15    -0.112896361453E+04   -0.15829E-02   -0.15829E-02  1320   0.779E-02-0.396E-05
CGA:  16    -0.112896446516E+04   -0.85064E-03   -0.85081E-03  1320   0.499E-02-0.161E-04
CGA:  17    -0.112896509446E+04   -0.62930E-03   -0.62921E-03  1320   0.310E-02 0.172E-05
CGA:  18    -0.112896543676E+04   -0.34230E-03   -0.34231E-03  1320   0.231E-02-0.573E-06
CGA:  19    -0.112896561369E+04   -0.17693E-03   -0.17698E-03  1320   0.180E-02 0.225E-05
CGA:  20    -0.112896578601E+04   -0.17232E-03   -0.17234E-03  1320   0.111E-02 0.197E-05
CGA:  21    -0.112896591958E+04   -0.13357E-03   -0.13357E-03  1320   0.670E-03 0.140E-06
CGA:  22    -0.112896600455E+04   -0.84974E-04   -0.84988E-04  1320   0.535E-03-0.596E-06
CGA:  23    -0.112896606197E+04   -0.57414E-04   -0.57415E-04  1320   0.381E-03-0.178E-06
CGA:  24    -0.112896609402E+04   -0.32049E-04   -0.32054E-04  1320   0.299E-03 0.205E-06
CGA:  25    -0.112896611975E+04   -0.25738E-04   -0.25754E-04  1320   0.173E-03 0.945E-06
CGA:  26    -0.112896613694E+04   -0.17189E-04   -0.17189E-04  1320   0.106E-03 0.199E-06
CGA:  27    -0.112896614880E+04   -0.11861E-04   -0.11863E-04  1320   0.744E-04-0.257E-06
CGA:  28    -0.112896615749E+04   -0.86826E-05   -0.86872E-05  1320   0.475E-04-0.301E-06
 100 F= -.11289662E+04 E0= -.11289381E+04  d E =-.226978E-02  mag=    19.9854
       N       E                     dE             d eps       ncg     rms          ort
SDA:   1    -0.112730375343E+04    0.16624E+01    0.00000E+00  1320   0.587E+01 0.000E+00
CGA:   2    -0.112821386744E+04   -0.91011E+00   -0.90855E+00  1320   0.433E+01 0.263E-01
CGA:   3    -0.112850544944E+04   -0.29158E+00   -0.29211E+00  1320   0.270E+01-0.502E-02
CGA:   4    -0.112876325123E+04   -0.25780E+00   -0.25788E+00  1320   0.183E+01 0.481E-02
CGA:   5    -0.112888959041E+04   -0.12634E+00   -0.12644E+00  1320   0.367E+00 0.723E-03
CGA:   6    -0.112892792907E+04   -0.38339E-01   -0.38347E-01  1320   0.237E+00-0.151E-02
CGA:   7    -0.112894894329E+04   -0.21014E-01   -0.21018E-01  1320   0.742E-01 0.140E-03
CGA:   8    -0.112895541908E+04   -0.64758E-02   -0.64774E-02  1320   0.271E-01 0.577E-04
CGA:   9    -0.112895833174E+04   -0.29127E-02   -0.29128E-02  1320   0.169E-01-0.114E-05
CGA:  10    -0.112896003200E+04   -0.17003E-02   -0.17003E-02  1320   0.818E-02 0.210E-04
CGA:  11    -0.112896074432E+04   -0.71231E-03   -0.71250E-03  1320   0.761E-02 0.753E-05
CGA:  12    -0.112896138617E+04   -0.64185E-03   -0.64173E-03  1320   0.473E-02 0.479E-06
CGA:  13    -0.112896185806E+04   -0.47190E-03   -0.47189E-03  1320   0.225E-02 0.144E-05
CGA:  14    -0.112896218555E+04   -0.32749E-03   -0.32791E-03  1320   0.200E-02-0.908E-05
CGA:  15    -0.112896243407E+04   -0.24852E-03   -0.24868E-03  1320   0.135E-02-0.668E-05
CGA:  16    -0.112896257478E+04   -0.14071E-03   -0.14071E-03  1320   0.932E-03 0.597E-07
CGA:  17    -0.112896266854E+04   -0.93760E-04   -0.93763E-04  1320   0.606E-03 0.859E-06
CGA:  18    -0.112896271879E+04   -0.50257E-04   -0.50254E-04  1320   0.458E-03-0.195E-06
CGA:  19    -0.112896275411E+04   -0.35314E-04   -0.35275E-04  1320   0.216E-03-0.153E-05
CGA:  20    -0.112896278180E+04   -0.27695E-04   -0.27732E-04  1320   0.163E-03-0.128E-05
CGA:  21    -0.112896279869E+04   -0.16890E-04   -0.16889E-04  1320   0.112E-03 0.415E-06
CGA:  22    -0.112896281248E+04   -0.13784E-04   -0.13756E-04  1320   0.687E-04 0.133E-05
CGA:  23    -0.112896282085E+04   -0.83701E-05   -0.83614E-05  1320   0.596E-04 0.466E-06
 101 F= -.11289628E+04 E0= -.11289350E+04  d E =0.333664E-02  mag=    19.9873
       N       E                     dE             d eps       ncg     rms          ort
SDA:   1    -0.112412585282E+04    0.48370E+01    0.00000E+00  1320   0.164E+02 0.000E+00
CGA:   2    -0.112740341377E+04   -0.32776E+01   -0.32783E+01  1320   0.683E+01-0.355E-02
CGA:   3    -0.112814674194E+04   -0.74333E+00   -0.74314E+00  1320   0.576E+01 0.961E-01
CGA:   4    -0.112862976965E+04   -0.48303E+00   -0.47941E+00  1320   0.191E+01-0.247E-01
CGA:   5    -0.112876622578E+04   -0.13646E+00   -0.13733E+00  1320   0.139E+01 0.118E-02
CGA:   6    -0.112888273519E+04   -0.11651E+00   -0.11649E+00  1320   0.597E+00-0.158E-03
CGA:   7    -0.112892667566E+04   -0.43940E-01   -0.43872E-01  1320   0.151E+00-0.211E-03
CGA:   8    -0.112894140968E+04   -0.14734E-01   -0.14733E-01  1320   0.800E-01-0.115E-03
CGA:   9    -0.112894932196E+04   -0.79123E-02   -0.79125E-02  1320   0.465E-01 0.103E-04
CGA:  10    -0.112895427040E+04   -0.49484E-02   -0.49485E-02  1320   0.244E-01-0.620E-05
CGA:  11    -0.112895698975E+04   -0.27194E-02   -0.27190E-02  1320   0.314E-01 0.313E-04
CGA:  12    -0.112895933151E+04   -0.23418E-02   -0.23431E-02  1320   0.154E-01 0.290E-04
CGA:  13    -0.112896099874E+04   -0.16672E-02   -0.16672E-02  1320   0.100E-01 0.108E-04
CGA:  14    -0.112896242631E+04   -0.14276E-02   -0.14274E-02  1320   0.960E-02 0.606E-05
CGA:  15    -0.112896349017E+04   -0.10639E-02   -0.10637E-02  1320   0.618E-02 0.190E-04
CGA:  16    -0.112896409970E+04   -0.60953E-03   -0.60959E-03  1320   0.482E-02 0.860E-05
CGA:  17    -0.112896445665E+04   -0.35695E-03   -0.35713E-03  1320   0.315E-02 0.383E-05
CGA:  18    -0.112896478362E+04   -0.32697E-03   -0.32696E-03  1320   0.169E-02 0.410E-05
CGA:  19    -0.112896496389E+04   -0.18028E-03   -0.18026E-03  1320   0.118E-02 0.267E-05
CGA:  20    -0.112896510177E+04   -0.13788E-03   -0.13788E-03  1320   0.922E-03-0.414E-06
CGA:  21    -0.112896519391E+04   -0.92142E-04   -0.92134E-04  1320   0.645E-03-0.244E-05
CGA:  22    -0.112896524865E+04   -0.54743E-04   -0.54701E-04  1320   0.544E-03-0.225E-05
CGA:  23    -0.112896529920E+04   -0.50543E-04   -0.50512E-04  1320   0.326E-03-0.335E-05
CGA:  24    -0.112896533574E+04   -0.36540E-04   -0.36561E-04  1320   0.180E-03-0.187E-05
CGA:  25    -0.112896535771E+04   -0.21976E-04   -0.21974E-04  1320   0.150E-03 0.759E-07
CGA:  26    -0.112896537097E+04   -0.13263E-04   -0.13266E-04  1320   0.105E-03 0.221E-06
CGA:  27    -0.112896537876E+04   -0.77850E-05   -0.77745E-05  1320   0.579E-04-0.372E-06
 102 F= -.11289654E+04 E0= -.11289373E+04  d E =-.255791E-02  mag=    19.9838
       N       E                     dE             d eps       ncg     rms          ort
SDA:   1    -0.112828127860E+04    0.68409E+00    0.00000E+00  1320   0.274E+01 0.000E+00
CGA:   2    -0.112864305204E+04   -0.36177E+00   -0.36212E+00  1320   0.172E+01-0.828E-02
CGA:   3    -0.112876475892E+04   -0.12171E+00   -0.12250E+00  1320   0.104E+01 0.268E-02
CGA:   4    -0.112887022829E+04   -0.10547E+00   -0.10547E+00  1320   0.993E+00-0.192E-03
CGA:   5    -0.112893356627E+04   -0.63338E-01   -0.63464E-01  1320   0.150E+00-0.427E-03
CGA:   6    -0.112894909267E+04   -0.15526E-01   -0.15528E-01  1320   0.809E-01-0.169E-03
CGA:   7    -0.112895697213E+04   -0.78795E-02   -0.78797E-02  1320   0.323E-01 0.555E-04
CGA:   8    -0.112895922262E+04   -0.22505E-02   -0.22519E-02  1320   0.172E-01 0.105E-04
CGA:   9    -0.112896042810E+04   -0.12055E-02   -0.12061E-02  1320   0.757E-02 0.695E-05
CGA:  10    -0.112896118063E+04   -0.75253E-03   -0.75251E-03  1320   0.400E-02 0.692E-05
CGA:  11    -0.112896157556E+04   -0.39492E-03   -0.39492E-03  1320   0.243E-02 0.899E-06
CGA:  12    -0.112896182151E+04   -0.24596E-03   -0.24596E-03  1320   0.163E-02-0.762E-06
CGA:  13    -0.112896197291E+04   -0.15140E-03   -0.15140E-03  1320   0.138E-02 0.196E-06
CGA:  14    -0.112896207486E+04   -0.10194E-03   -0.10197E-03  1320   0.642E-03 0.118E-05
CGA:  15    -0.112896214890E+04   -0.74045E-04   -0.74014E-04  1320   0.558E-03 0.156E-05
CGA:  16    -0.112896221506E+04   -0.66162E-04   -0.66123E-04  1320   0.361E-03 0.188E-05
CGA:  17    -0.112896224967E+04   -0.34603E-04   -0.34603E-04  1320   0.254E-03-0.174E-06
CGA:  18    -0.112896227106E+04   -0.21388E-04   -0.21381E-04  1320   0.197E-03-0.529E-06
CGA:  19    -0.112896228823E+04   -0.17173E-04   -0.17165E-04  1320   0.108E-03-0.843E-06
CGA:  20    -0.112896229874E+04   -0.10514E-04   -0.10513E-04  1320   0.555E-04 0.708E-07
CGA:  21    -0.112896230676E+04   -0.80169E-05   -0.80120E-05  1320   0.474E-04 0.989E-07
 103 F= -.11289623E+04 E0= -.11289340E+04  d E =0.307200E-02  mag=    19.9813
       N       E                     dE             d eps       ncg     rms          ort
SDA:   1    -0.112829635559E+04    0.66594E+00    0.00000E+00  1320   0.243E+01 0.000E+00
CGA:   2    -0.112868778860E+04   -0.39143E+00   -0.39084E+00  1320   0.183E+01 0.872E-02
CGA:   3    -0.112879542879E+04   -0.10764E+00   -0.10781E+00  1320   0.992E+00-0.191E-02
CGA:   4    -0.112889561258E+04   -0.10018E+00   -0.10016E+00  1320   0.661E+00 0.551E-02
CGA:   5    -0.112894217964E+04   -0.46567E-01   -0.46707E-01  1320   0.146E+00 0.522E-03
CGA:   6    -0.112895973271E+04   -0.17553E-01   -0.17570E-01  1320   0.103E+00-0.509E-03
CGA:   7    -0.112896832007E+04   -0.85874E-02   -0.85892E-02  1320   0.262E-01 0.523E-04
CGA:   8    -0.112897063155E+04   -0.23115E-02   -0.23123E-02  1320   0.129E-01 0.339E-04
CGA:   9    -0.112897171342E+04   -0.10819E-02   -0.10815E-02  1320   0.822E-02-0.370E-05
CGA:  10    -0.112897236385E+04   -0.65043E-03   -0.65060E-03  1320   0.522E-02 0.647E-05
CGA:  11    -0.112897276552E+04   -0.40167E-03   -0.40179E-03  1320   0.266E-02 0.608E-05
CGA:  12    -0.112897314892E+04   -0.38340E-03   -0.38333E-03  1320   0.186E-02 0.170E-05
CGA:  13    -0.112897337374E+04   -0.22482E-03   -0.22484E-03  1320   0.123E-02-0.107E-05
CGA:  14    -0.112897351917E+04   -0.14542E-03   -0.14548E-03  1320   0.940E-03-0.295E-05
CGA:  15    -0.112897364827E+04   -0.12910E-03   -0.12926E-03  1320   0.842E-03-0.418E-05
CGA:  16    -0.112897371314E+04   -0.64869E-04   -0.64833E-04  1320   0.555E-03-0.138E-05
CGA:  17    -0.112897375750E+04   -0.44361E-04   -0.44340E-04  1320   0.352E-03-0.110E-05
CGA:  18    -0.112897379410E+04   -0.36595E-04   -0.36597E-04  1320   0.190E-03-0.523E-06
CGA:  19    -0.112897381521E+04   -0.21112E-04   -0.21113E-04  1320   0.102E-03-0.544E-07
CGA:  20    -0.112897382874E+04   -0.13534E-04   -0.13531E-04  1320   0.892E-04 0.776E-07
CGA:  21    -0.112897383734E+04   -0.85950E-05   -0.85965E-05  1320   0.542E-04 0.265E-06
 104 F= -.11289738E+04 E0= -.11289457E+04  d E =-.115306E-01  mag=    19.9837
