       N       E                     dE             d eps       ncg     rms           ort
DAV:   1     0.118697427761E+05    0.11870E+05   -0.45836E+05  2176   0.170E+03  
DAV:   2     0.916428365959E+03   -0.10953E+05   -0.10541E+05  2176   0.531E+02  
DAV:   3    -0.831826835214E+03   -0.17483E+04   -0.16889E+04  2176   0.194E+02  
DAV:   4    -0.970056868352E+03   -0.13823E+03   -0.13219E+03  2176   0.562E+01  
DAV:   5    -0.980005702925E+03   -0.99488E+01   -0.95297E+01  2176   0.125E+01  
SDA:   6     0.260725782692E+02    0.10061E+04   -0.95297E+01  2176   0.931E+04   0.000E+00
CGA:   7    -0.479167220155E+03   -0.50524E+03   -0.85433E+03  2176   0.125E+05  -0.209E+04
CGA:   8    -0.705385012499E+03   -0.22622E+03   -0.22600E+03  2176   0.771E+03   0.327E+03
CGA:   9    -0.723000785808E+03   -0.17616E+02   -0.17764E+02  2176   0.103E+04  -0.124E+02
CGA:  10    -0.760297730695E+03   -0.37297E+02   -0.48087E+02  2176   0.703E+03  -0.156E+03
CGA:  11    -0.775244635611E+03   -0.14947E+02   -0.14971E+02  2176   0.387E+03  -0.826E+00
CGA:  12    -0.786083497315E+03   -0.10839E+02   -0.10654E+02  2176   0.972E+02   0.106E+01
CGA:  13    -0.790001784533E+03   -0.39183E+01   -0.39152E+01  2176   0.121E+03   0.291E+00
CGA:  14    -0.794020016081E+03   -0.40182E+01   -0.40084E+01  2176   0.135E+03  -0.254E+01
CGA:  15    -0.800658020623E+03   -0.66380E+01   -0.68531E+01  2176   0.109E+03  -0.584E+00
CGA:  16    -0.802745326830E+03   -0.20873E+01   -0.21220E+01  2176   0.376E+02   0.307E+00
CGA:  17    -0.803859564299E+03   -0.11142E+01   -0.11130E+01  2176   0.169E+02   0.563E+00
CGA:  18    -0.804672065597E+03   -0.81250E+00   -0.80548E+00  2176   0.299E+02   0.108E+00
CGA:  19    -0.805902553941E+03   -0.12305E+01   -0.12174E+01  2176   0.212E+02   0.126E+00
CGA:  20    -0.806536432059E+03   -0.63388E+00   -0.66451E+00  2176   0.109E+02  -0.665E+00
CGA:  21    -0.806778238334E+03   -0.24181E+00   -0.23576E+00  2176   0.457E+01   0.182E+00
CGA:  22    -0.807022397565E+03   -0.24416E+00   -0.24508E+00  2176   0.706E+01   0.133E-02
CGA:  23    -0.807309353069E+03   -0.28696E+00   -0.28687E+00  2176   0.757E+01  -0.800E-02
CGA:  24    -0.807566828542E+03   -0.25748E+00   -0.25254E+00  2176   0.373E+01   0.899E-01
CGA:  25    -0.807688923487E+03   -0.12209E+00   -0.12053E+00  2176   0.303E+01   0.478E-01
CGA:  26    -0.807791641406E+03   -0.10272E+00   -0.10761E+00  2176   0.248E+01  -0.172E-01
CGA:  27    -0.807970107429E+03   -0.17847E+00   -0.17785E+00  2176   0.421E+01   0.235E-01
CGA:  28    -0.808099288957E+03   -0.12918E+00   -0.11905E+00  2176   0.229E+01   0.193E+00
CGA:  29    -0.808172343717E+03   -0.73055E-01   -0.72282E-01  2176   0.113E+01  -0.550E-02
CGA:  30    -0.808215180234E+03   -0.42837E-01   -0.43333E-01  2176   0.158E+01  -0.191E-02
CGA:  31    -0.808281630815E+03   -0.66451E-01   -0.66132E-01  2176   0.173E+01  -0.161E-01
CGA:  32    -0.808355587578E+03   -0.73957E-01   -0.73682E-01  2176   0.129E+01  -0.987E-02
CGA:  33    -0.808391303406E+03   -0.35716E-01   -0.36078E-01  2176   0.950E+00   0.400E-02
CGA:  34    -0.808422273786E+03   -0.30970E-01   -0.30856E-01  2176   0.414E+00   0.108E-01
CGA:  35    -0.808437353258E+03   -0.15079E-01   -0.15091E-01  2176   0.419E+00   0.466E-02
CGA:  36    -0.808453145230E+03   -0.15792E-01   -0.15859E-01  2176   0.488E+00   0.689E-02
CGA:  37    -0.808476794003E+03   -0.23649E-01   -0.23629E-01  2176   0.365E+00   0.643E-02
CGA:  38    -0.808486413426E+03   -0.96194E-02   -0.96488E-02  2176   0.204E+00   0.341E-02
CGA:  39    -0.808492319295E+03   -0.59059E-02   -0.59694E-02  2176   0.119E+00   0.209E-02
CGA:  40    -0.808499519969E+03   -0.72007E-02   -0.71363E-02  2176   0.230E+00   0.328E-02
CGA:  41    -0.808508496783E+03   -0.89768E-02   -0.89897E-02  2176   0.210E+00   0.254E-02
CGA:  42    -0.808515690540E+03   -0.71938E-02   -0.72156E-02  2176   0.848E-01   0.199E-02
CGA:  43    -0.808518215466E+03   -0.25249E-02   -0.25365E-02  2176   0.667E-01   0.680E-03
CGA:  44    -0.808521305997E+03   -0.30905E-02   -0.30857E-02  2176   0.801E-01   0.828E-03
CGA:  45    -0.808524996451E+03   -0.36905E-02   -0.36862E-02  2176   0.631E-01   0.925E-03
CGA:  46    -0.808526768300E+03   -0.17718E-02   -0.17774E-02  2176   0.365E-01   0.443E-03
SDA:  47    -0.808528195828E+03   -0.14275E-02   -0.14280E-02  2176   0.258E-01   0.346E-03
CGA:  48    -0.808529231743E+03   -0.10359E-02   -0.10359E-02  2176   0.228E-01  -0.422E-04
CGA:  49    -0.808530208436E+03   -0.97669E-03   -0.97703E-03  2176   0.216E-01  -0.101E-03
CGA:  50    -0.808531203465E+03   -0.99503E-03   -0.99570E-03  2176   0.103E-01  -0.109E-03
CGA:  51    -0.808531651127E+03   -0.44766E-03   -0.44779E-03  2176   0.935E-02  -0.486E-04
CGA:  52    -0.808532316750E+03   -0.66562E-03   -0.66772E-03  2176   0.125E-01  -0.712E-04
CGA:  53    -0.808533009366E+03   -0.69262E-03   -0.69379E-03  2176   0.103E-01  -0.950E-04
CGA:  54    -0.808533295454E+03   -0.28609E-03   -0.28536E-03  2176   0.416E-02  -0.266E-04
CGA:  55    -0.808533486840E+03   -0.19139E-03   -0.19144E-03  2176   0.250E-02  -0.181E-04
CGA:  56    -0.808533824068E+03   -0.33723E-03   -0.33822E-03  2176   0.432E-02  -0.112E-04
CGA:  57    -0.808534049587E+03   -0.22552E-03   -0.22553E-03  2176   0.327E-02   0.126E-04
CGA:  58    -0.808534133934E+03   -0.84347E-04   -0.84669E-04  2176   0.161E-02   0.152E-04
CGA:  59    -0.808534260772E+03   -0.12684E-03   -0.12552E-03  2176   0.176E-02   0.488E-04
CGA:  60    -0.808534396354E+03   -0.13558E-03   -0.13442E-03  2176   0.124E-02   0.562E-04
CGA:  61    -0.808534435855E+03   -0.39500E-04   -0.39756E-04  2176   0.634E-03   0.105E-04
CGA:  62    -0.808534462730E+03   -0.26875E-04   -0.26836E-04  2176   0.627E-03  -0.345E-05
CGA:  63    -0.808534509876E+03   -0.47146E-04   -0.47788E-04  2176   0.885E-03  -0.258E-04
CGA:  64    -0.808534549321E+03   -0.39446E-04   -0.39229E-04  2176   0.704E-03  -0.276E-04
CGA:  65    -0.808534582140E+03   -0.32818E-04   -0.32689E-04  2176   0.247E-03  -0.239E-04
CGA:  66    -0.808534591199E+03   -0.90589E-05   -0.90088E-05  2176   0.278E-03  -0.343E-05
CGA:  67    -0.808534605853E+03   -0.14654E-04   -0.14655E-04  2176   0.273E-03  -0.632E-06
CGA:  68    -0.808534628716E+03   -0.22863E-04   -0.22734E-04  2176   0.180E-03   0.402E-05
CGA:  69    -0.808534636832E+03   -0.81163E-05   -0.81259E-05  2176   0.812E-04   0.879E-06
   1 F= -.80853464E+03 E0= -.80849393E+03  d E =-.808535E+03  mag=    66.0000
