       N       E                     dE             d eps       ncg     rms          ort
DAV:   1     0.147803601978E+05    0.14780E+05   -0.58476E+05  1320   0.173E+03
DAV:   2     0.124158192827E+04   -0.13539E+05   -0.13020E+05  1320   0.526E+02
DAV:   3    -0.131903011225E+04   -0.25606E+04   -0.24784E+04  1320   0.207E+02
DAV:   4    -0.148673789866E+04   -0.16771E+03   -0.16323E+03  1320   0.604E+01
DAV:   5    -0.149551604780E+04   -0.87781E+01   -0.81452E+01  1320   0.122E+01
SDA:   6     0.100414233334E+03    0.15959E+04   -0.81452E+01  1320   0.939E+04 0.000E+00
CGA:   7    -0.903818425876E+03   -0.10042E+04   -0.11279E+04  1320   0.120E+04 0.336E+03
CGA:   8    -0.960079034501E+03   -0.56261E+02   -0.92054E+02  1320   0.135E+04-0.259E+03
CGA:   9    -0.101886903527E+04   -0.58790E+02   -0.59331E+02  1320   0.884E+03 0.863E+02
CGA:  10    -0.102017248780E+04   -0.13035E+01   -0.56464E+02  1320   0.166E+04-0.610E+03
CGA:  11    -0.104367973056E+04   -0.23507E+02   -0.83496E+02  1320   0.112E+04-0.794E+03
CGA:  12    -0.107896993360E+04   -0.35290E+02   -0.20391E+02  1320   0.466E+03-0.628E+02
CGA:  13    -0.109107718224E+04   -0.12107E+02   -0.12827E+02  1320   0.429E+03-0.376E+03
CGA:  14    -0.108119827528E+04    0.98789E+01   -0.18485E+02  1320   0.151E+04-0.627E+03
CGA:  15    -0.104628640548E+04    0.34912E+02   -0.71330E+02  1320   0.221E+04-0.985E+03
CGA:  16    -0.969318788510E+03    0.76968E+02   -0.10449E+03  1320   0.313E+04-0.174E+04
CGA:  17    -0.945505135942E+03    0.23814E+02   -0.13671E+03  1320   0.464E+04-0.414E+04
CGA:  18    -0.909114400589E+03    0.36391E+02   -0.22655E+03  1320   0.399E+04-0.348E+04
CGA:  19    -0.950762040720E+03   -0.41648E+02   -0.17761E+03  1320   0.458E+04-0.505E+04
CGA:  20    -0.939166029710E+03    0.11596E+02   -0.21210E+03  1320   0.344E+04-0.331E+04
CGA:  21    -0.998759824860E+03   -0.59594E+02   -0.13697E+03  1320   0.356E+04-0.434E+04
CGA:  22    -0.994571907969E+03    0.41879E+01   -0.14537E+03  1320   0.364E+04-0.355E+04
CGA:  23    -0.101206055090E+04   -0.17489E+02   -0.14070E+03  1320   0.331E+04-0.352E+04
CGA:  24    -0.102577323976E+04   -0.13713E+02   -0.12565E+03  1320   0.371E+04-0.396E+04
CGA:  25    -0.103930946238E+04   -0.13536E+02   -0.13666E+03  1320   0.331E+04-0.354E+04
CGA:  26    -0.105584646631E+04   -0.16537E+02   -0.11983E+03  1320   0.349E+04-0.394E+04
CGA:  27    -0.107623277882E+04   -0.20386E+02   -0.12052E+03  1320   0.226E+04-0.268E+04
CGA:  28    -0.110642365249E+04   -0.30191E+02   -0.70049E+02  1320   0.896E+03-0.154E+04
CGA:  29    -0.111725064631E+04   -0.10827E+02   -0.24812E+02  1320   0.191E+03-0.330E+03
CGA:  30    -0.112046091805E+04   -0.32103E+01   -0.19433E+01  1320   0.665E+02 0.764E+02
CGA:  31    -0.112187866040E+04   -0.14177E+01   -0.10830E+01  1320   0.884E+01 0.247E+02
CGA:  32    -0.112215984080E+04   -0.28118E+00   -0.23266E+00  1320   0.876E+01 0.219E+01
CGA:  33    -0.112266942085E+04   -0.50958E+00   -0.51330E+00  1320   0.343E+02-0.592E-01
CGA:  34    -0.112345868177E+04   -0.78926E+00   -0.85565E+00  1320   0.427E+02-0.196E+01
CGA:  35    -0.112393597582E+04   -0.47729E+00   -0.61751E+00  1320   0.303E+02-0.634E+01
CGA:  36    -0.112441895187E+04   -0.48298E+00   -0.48710E+00  1320   0.304E+02-0.332E+00
CGA:  37    -0.112488393050E+04   -0.46498E+00   -0.43334E+00  1320   0.193E+02 0.114E+01
CGA:  38    -0.112513119706E+04   -0.24727E+00   -0.26835E+00  1320   0.129E+02-0.147E+01
CGA:  39    -0.112530393295E+04   -0.17274E+00   -0.20794E+00  1320   0.104E+02-0.159E+01
CGA:  40    -0.112541690652E+04   -0.11297E+00   -0.13837E+00  1320   0.495E+01-0.136E+01
CGA:  41    -0.112548083407E+04   -0.63928E-01   -0.77173E-01  1320   0.368E+01-0.555E+00
CGA:  42    -0.112558824083E+04   -0.10741E+00   -0.11093E+00  1320   0.609E+01-0.259E-01
CGA:  43    -0.112578653246E+04   -0.19829E+00   -0.19836E+00  1320   0.530E+01 0.111E-01
CGA:  44    -0.112591383479E+04   -0.12730E+00   -0.13021E+00  1320   0.371E+01-0.486E-01
CGA:  45    -0.112605401264E+04   -0.14018E+00   -0.14249E+00  1320   0.451E+01 0.282E-01
CGA:  46    -0.112619358836E+04   -0.13958E+00   -0.14192E+00  1320   0.266E+01-0.179E-01
CGA:  47    -0.112628332826E+04   -0.89740E-01   -0.90892E-01  1320   0.228E+01-0.233E-02
CGA:  48    -0.112637953215E+04   -0.96204E-01   -0.96348E-01  1320   0.195E+01 0.283E-03
CGA:  49    -0.112644590965E+04   -0.66377E-01   -0.65634E-01  1320   0.136E+01-0.368E-02
CGA:  50    -0.112650132500E+04   -0.55415E-01   -0.55326E-01  1320   0.129E+01-0.609E-02
CGA:  51    -0.112654504151E+04   -0.43717E-01   -0.43897E-01  1320   0.925E+00-0.241E-02
CGA:  52    -0.112658748893E+04   -0.42447E-01   -0.42501E-01  1320   0.112E+01 0.699E-02
CGA:  53    -0.112663570068E+04   -0.48212E-01   -0.48266E-01  1320   0.755E+00 0.114E-02
CGA:  54    -0.112666239465E+04   -0.26694E-01   -0.26602E-01  1320   0.527E+00-0.231E-02
CGA:  55    -0.112668568133E+04   -0.23287E-01   -0.23272E-01  1320   0.448E+00-0.254E-02
CGA:  56    -0.112670190451E+04   -0.16223E-01   -0.16228E-01  1320   0.328E+00-0.200E-03
CGA:  57    -0.112671689922E+04   -0.14995E-01   -0.14995E-01  1320   0.322E+00 0.179E-03
CGA:  58    -0.112672989380E+04   -0.12995E-01   -0.13000E-01  1320   0.269E+00 0.540E-03
SDA:  59    -0.112674272621E+04   -0.12832E-01   -0.12833E-01  1320   0.287E+00 0.229E-03
CGA:  60    -0.112675659503E+04   -0.13869E-01   -0.13871E-01  1320   0.164E+00-0.413E-03
CGA:  61    -0.112676989166E+04   -0.13297E-01   -0.13329E-01  1320   0.102E+00-0.787E-03
CGA:  62    -0.112678046677E+04   -0.10575E-01   -0.10524E-01  1320   0.681E-01 0.905E-03
CGA:  63    -0.112678810022E+04   -0.76334E-02   -0.75971E-02  1320   0.566E-01 0.579E-03
CGA:  64    -0.112679332604E+04   -0.52258E-02   -0.52021E-02  1320   0.376E-01 0.665E-03
CGA:  65    -0.112679647602E+04   -0.31500E-02   -0.31347E-02  1320   0.331E-01 0.587E-03
CGA:  66    -0.112679827787E+04   -0.18019E-02   -0.18021E-02  1320   0.154E-01 0.237E-03
CGA:  67    -0.112680043208E+04   -0.21542E-02   -0.21193E-02  1320   0.142E-01 0.438E-03
CGA:  68    -0.112680252157E+04   -0.20895E-02   -0.20748E-02  1320   0.122E-01 0.170E-03
CGA:  69    -0.112680384947E+04   -0.13279E-02   -0.13344E-02  1320   0.101E-01-0.138E-03
CGA:  70    -0.112680466550E+04   -0.81603E-03   -0.81727E-03  1320   0.135E-01-0.819E-04
CGA:  71    -0.112680569917E+04   -0.10337E-02   -0.10357E-02  1320   0.952E-02-0.194E-03
CGA:  72    -0.112680688745E+04   -0.11883E-02   -0.12088E-02  1320   0.126E-01-0.341E-03
CGA:  73    -0.112680832909E+04   -0.14416E-02   -0.14746E-02  1320   0.110E-01-0.636E-03
CGA:  74    -0.112680925565E+04   -0.92656E-03   -0.93020E-03  1320   0.556E-02-0.221E-03
CGA:  75    -0.112680980858E+04   -0.55293E-03   -0.55363E-03  1320   0.617E-02-0.347E-04
CGA:  76    -0.112681052370E+04   -0.71512E-03   -0.71763E-03  1320   0.114E-01-0.577E-04
CGA:  77    -0.112681124571E+04   -0.72201E-03   -0.72181E-03  1320   0.768E-02 0.574E-08
CGA:  78    -0.112681204091E+04   -0.79520E-03   -0.79772E-03  1320   0.446E-02-0.596E-04
CGA:  79    -0.112681248287E+04   -0.44197E-03   -0.44078E-03  1320   0.533E-02 0.574E-04
CGA:  80    -0.112681300265E+04   -0.51978E-03   -0.51756E-03  1320   0.369E-02 0.121E-03
CGA:  81    -0.112681324512E+04   -0.24247E-03   -0.24306E-03  1320   0.341E-02 0.393E-04
CGA:  82    -0.112681349945E+04   -0.25433E-03   -0.25462E-03  1320   0.231E-02 0.417E-04
CGA:  83    -0.112681376168E+04   -0.26224E-03   -0.26152E-03  1320   0.180E-02 0.215E-04
CGA:  84    -0.112681391839E+04   -0.15671E-03   -0.15665E-03  1320   0.131E-02 0.101E-04
CGA:  85    -0.112681405141E+04   -0.13302E-03   -0.13290E-03  1320   0.169E-02 0.423E-05
CGA:  86    -0.112681417574E+04   -0.12433E-03   -0.12433E-03  1320   0.178E-02-0.103E-07
CGA:  87    -0.112681432694E+04   -0.15120E-03   -0.15119E-03  1320   0.105E-02 0.372E-06
CGA:  88    -0.112681440641E+04   -0.79471E-04   -0.79432E-04  1320   0.649E-03-0.618E-05
CGA:  89    -0.112681448617E+04   -0.79761E-04   -0.80358E-04  1320   0.893E-03-0.142E-04
SDA:  90    -0.112681454709E+04   -0.60920E-04   -0.60753E-04  1320   0.696E-03-0.123E-04
CGA:  91    -0.112681457636E+04   -0.29267E-04   -0.29174E-04  1320   0.380E-03-0.146E-05
CGA:  92    -0.112681460846E+04   -0.32101E-04   -0.32118E-04  1320   0.307E-03-0.481E-05
CGA:  93    -0.112681465044E+04   -0.41978E-04   -0.42496E-04  1320   0.469E-03-0.901E-05
CGA:  94    -0.112681469839E+04   -0.47954E-04   -0.48107E-04  1320   0.345E-03-0.748E-05
CGA:  95    -0.112681473218E+04   -0.33790E-04   -0.33826E-04  1320   0.244E-03-0.248E-05
CGA:  96    -0.112681475765E+04   -0.25470E-04   -0.25450E-04  1320   0.216E-03 0.999E-06
CGA:  97    -0.112681477479E+04   -0.17139E-04   -0.17161E-04  1320   0.210E-03 0.265E-05
CGA:  98    -0.112681478712E+04   -0.12333E-04   -0.12416E-04  1320   0.123E-03 0.304E-05
CGA:  99    -0.112681479945E+04   -0.12329E-04   -0.12267E-04  1320   0.767E-04 0.475E-05
CGA: 100    -0.112681480953E+04   -0.10076E-04   -0.98462E-05  1320   0.569E-04 0.596E-05
CGA: 101    -0.112681481520E+04   -0.56750E-05   -0.56525E-05  1320   0.441E-04 0.493E-05
   1 F= -.11268148E+04 E0= -.11267833E+04  d E =-.112681E+04  mag=    20.0000
       N       E                     dE             d eps       ncg     rms          ort
SDA:   1    -0.112682680590E+04   -0.11996E-01    0.00000E+00  1320   0.468E-01 0.000E+00
CGA:   2    -0.112682834881E+04   -0.15429E-02   -0.15390E-02  1320   0.156E-01 0.576E-04
CGA:   3    -0.112682981041E+04   -0.14616E-02   -0.14617E-02  1320   0.105E-01-0.291E-04
CGA:   4    -0.112683054124E+04   -0.73083E-03   -0.73012E-03  1320   0.577E-02-0.283E-04
CGA:   5    -0.112683114236E+04   -0.60111E-03   -0.60135E-03  1320   0.388E-02-0.146E-04
CGA:   6    -0.112683141851E+04   -0.27615E-03   -0.27604E-03  1320   0.157E-02-0.524E-05
CGA:   7    -0.112683148757E+04   -0.69063E-04   -0.69096E-04  1320   0.634E-03-0.116E-05
CGA:   8    -0.112683153029E+04   -0.42724E-04   -0.42708E-04  1320   0.319E-03-0.971E-06
CGA:   9    -0.112683155830E+04   -0.28006E-04   -0.28015E-04  1320   0.128E-03-0.197E-05
CGA:  10    -0.112683156837E+04   -0.10067E-04   -0.10059E-04  1320   0.761E-04-0.182E-05
CGA:  11    -0.112683157267E+04   -0.43057E-05   -0.42776E-05  1320   0.534E-04-0.111E-05
   2 F= -.11268316E+04 E0= -.11268001E+04  d E =-.167575E-01  mag=    20.0000
       N       E                     dE             d eps       ncg     rms          ort
SDA:   1    -0.111843668531E+04    0.83949E+01    0.00000E+00  1320   0.336E+02 0.000E+00
CGA:   2    -0.112338990495E+04   -0.49532E+01   -0.49694E+01  1320   0.180E+02-0.226E+00
CGA:   3    -0.112490196705E+04   -0.15121E+01   -0.15121E+01  1320   0.174E+02 0.107E+00
CGA:   4    -0.112647358417E+04   -0.15716E+01   -0.15670E+01  1320   0.120E+02 0.518E+00
CGA:   5    -0.112700606150E+04   -0.53248E+00   -0.50542E+00  1320   0.228E+01 0.357E+00
CGA:   6    -0.112721275656E+04   -0.20670E+00   -0.20684E+00  1320   0.148E+01-0.153E-01
CGA:   7    -0.112732937987E+04   -0.11662E+00   -0.11668E+00  1320   0.597E+00 0.791E-02
CGA:   8    -0.112737278535E+04   -0.43405E-01   -0.43414E-01  1320   0.170E+00 0.239E-03
CGA:   9    -0.112739592924E+04   -0.23144E-01   -0.23146E-01  1320   0.112E+00-0.470E-04
CGA:  10    -0.112740410172E+04   -0.81725E-02   -0.81713E-02  1320   0.745E-01-0.616E-04
CGA:  11    -0.112740827574E+04   -0.41740E-02   -0.41601E-02  1320   0.444E-01 0.133E-04
CGA:  12    -0.112741241755E+04   -0.41418E-02   -0.41396E-02  1320   0.292E-01 0.135E-03
CGA:  13    -0.112741550977E+04   -0.30922E-02   -0.30916E-02  1320   0.142E-01 0.246E-04
CGA:  14    -0.112741701888E+04   -0.15091E-02   -0.15086E-02  1320   0.107E-01 0.215E-04
CGA:  15    -0.112741826569E+04   -0.12468E-02   -0.12459E-02  1320   0.941E-02 0.271E-04
CGA:  16    -0.112741907144E+04   -0.80575E-03   -0.80583E-03  1320   0.523E-02 0.365E-04
CGA:  17    -0.112741957545E+04   -0.50401E-03   -0.50365E-03  1320   0.452E-02 0.374E-04
CGA:  18    -0.112741988673E+04   -0.31128E-03   -0.31178E-03  1320   0.377E-02 0.235E-04
CGA:  19    -0.112742013734E+04   -0.25061E-03   -0.25094E-03  1320   0.141E-02 0.176E-04
CGA:  20    -0.112742031496E+04   -0.17762E-03   -0.17739E-03  1320   0.993E-03 0.583E-05
CGA:  21    -0.112742041847E+04   -0.10351E-03   -0.10359E-03  1320   0.777E-03-0.488E-05
CGA:  22    -0.112742048880E+04   -0.70324E-04   -0.70340E-04  1320   0.723E-03-0.644E-05
CGA:  23    -0.112742053954E+04   -0.50740E-04   -0.50676E-04  1320   0.654E-03-0.322E-05
CGA:  24    -0.112742059013E+04   -0.50592E-04   -0.50585E-04  1320   0.293E-03-0.620E-06
CGA:  25    -0.112742062751E+04   -0.37378E-04   -0.37241E-04  1320   0.266E-03 0.337E-05
CGA:  26    -0.112742065088E+04   -0.23377E-04   -0.23382E-04  1320   0.163E-03 0.268E-05
CGA:  27    -0.112742066852E+04   -0.17640E-04   -0.17625E-04  1320   0.106E-03 0.861E-06
CGA:  28    -0.112742067825E+04   -0.97237E-05   -0.97271E-05  1320   0.104E-03-0.224E-05
   3 F= -.11274207E+04 E0= -.11273912E+04  d E =-.589106E+00  mag=    20.0000
       N       E                     dE             d eps       ncg     rms          ort
SDA:   1    -0.110765446845E+04    0.19766E+02    0.00000E+00  1320   0.684E+02 0.000E+00
CGA:   2    -0.111832668322E+04   -0.10672E+02   -0.10602E+02  1320   0.517E+02 0.101E+01
CGA:   3    -0.112187656426E+04   -0.35499E+01   -0.32843E+01  1320   0.392E+02-0.146E+01
CGA:   4    -0.112520724078E+04   -0.33307E+01   -0.33341E+01  1320   0.266E+02 0.509E+00
CGA:   5    -0.112693652610E+04   -0.17293E+01   -0.17078E+01  1320   0.606E+01 0.935E-01
CGA:   6    -0.112737676523E+04   -0.44024E+00   -0.43559E+00  1320   0.324E+01-0.723E-01
CGA:   7    -0.112763929543E+04   -0.26253E+00   -0.26305E+00  1320   0.206E+01 0.361E-01
CGA:   8    -0.112774523026E+04   -0.10593E+00   -0.10637E+00  1320   0.856E+00-0.199E-02
CGA:   9    -0.112779449395E+04   -0.49264E-01   -0.49530E-01  1320   0.270E+00 0.525E-04
CGA:  10    -0.112783610562E+04   -0.41612E-01   -0.41538E-01  1320   0.141E+00 0.992E-03
CGA:  11    -0.112785043758E+04   -0.14332E-01   -0.14341E-01  1320   0.870E-01-0.460E-03
CGA:  12    -0.112785897866E+04   -0.85411E-02   -0.85362E-02  1320   0.745E-01 0.300E-03
CGA:  13    -0.112786445660E+04   -0.54779E-02   -0.54804E-02  1320   0.604E-01 0.383E-04
CGA:  14    -0.112786826729E+04   -0.38107E-02   -0.38196E-02  1320   0.239E-01 0.332E-04
CGA:  15    -0.112787111718E+04   -0.28499E-02   -0.28465E-02  1320   0.227E-01 0.910E-04
CGA:  16    -0.112787365960E+04   -0.25424E-02   -0.25403E-02  1320   0.117E-01 0.760E-04
CGA:  17    -0.112787504531E+04   -0.13857E-02   -0.13850E-02  1320   0.708E-02 0.267E-04
CGA:  18    -0.112787582964E+04   -0.78433E-03   -0.78377E-03  1320   0.882E-02 0.247E-04
CGA:  19    -0.112787633333E+04   -0.50369E-03   -0.50432E-03  1320   0.361E-02 0.527E-05
CGA:  20    -0.112787664504E+04   -0.31172E-03   -0.31173E-03  1320   0.216E-02 0.147E-05
CGA:  21    -0.112787692115E+04   -0.27611E-03   -0.27635E-03  1320   0.181E-02-0.628E-05
CGA:  22    -0.112787709512E+04   -0.17397E-03   -0.17399E-03  1320   0.133E-02-0.575E-05
CGA:  23    -0.112787724324E+04   -0.14812E-03   -0.14826E-03  1320   0.837E-03-0.670E-05
CGA:  24    -0.112787732839E+04   -0.85144E-04   -0.85178E-04  1320   0.105E-02-0.374E-05
CGA:  25    -0.112787738992E+04   -0.61532E-04   -0.61474E-04  1320   0.468E-03-0.170E-05
CGA:  26    -0.112787744768E+04   -0.57758E-04   -0.57714E-04  1320   0.283E-03 0.139E-05
CGA:  27    -0.112787748072E+04   -0.33043E-04   -0.33084E-04  1320   0.192E-03-0.184E-05
CGA:  28    -0.112787750320E+04   -0.22483E-04   -0.22555E-04  1320   0.134E-03-0.312E-05
CGA:  29    -0.112787751551E+04   -0.12306E-04   -0.12298E-04  1320   0.124E-03-0.288E-05
CGA:  30    -0.112787752358E+04   -0.80723E-05   -0.80270E-05  1320   0.772E-04-0.151E-05
   4 F= -.11278775E+04 E0= -.11278500E+04  d E =-.456845E+00  mag=    20.0000
       N       E                     dE             d eps       ncg     rms          ort
SDA:   1    -0.111423677378E+04    0.13641E+02    0.00000E+00  1320   0.502E+02 0.000E+00
CGA:   2    -0.112126006613E+04   -0.70233E+01   -0.69922E+01  1320   0.390E+02 0.574E+00
CGA:   3    -0.112390470708E+04   -0.26446E+01   -0.25224E+01  1320   0.258E+02-0.229E+00
CGA:   4    -0.112601454346E+04   -0.21098E+01   -0.21251E+01  1320   0.183E+02 0.516E+00
CGA:   5    -0.112748849304E+04   -0.14739E+01   -0.14657E+01  1320   0.383E+01-0.138E+00
CGA:   6    -0.112780472113E+04   -0.31623E+00   -0.31639E+00  1320   0.188E+01 0.507E-02
CGA:   7    -0.112796815532E+04   -0.16343E+00   -0.16346E+00  1320   0.118E+01 0.225E-02
CGA:   8    -0.112803401689E+04   -0.65862E-01   -0.66612E-01  1320   0.434E+00-0.273E-02
CGA:   9    -0.112806138517E+04   -0.27368E-01   -0.27319E-01  1320   0.172E+00-0.646E-04
CGA:  10    -0.112808506000E+04   -0.23675E-01   -0.23640E-01  1320   0.842E-01 0.606E-03
CGA:  11    -0.112809395645E+04   -0.88964E-02   -0.89004E-02  1320   0.604E-01-0.185E-03
CGA:  12    -0.112809804793E+04   -0.40915E-02   -0.40992E-02  1320   0.476E-01 0.387E-04
CGA:  13    -0.112810234231E+04   -0.42944E-02   -0.42944E-02  1320   0.279E-01-0.452E-05
CGA:  14    -0.112810469090E+04   -0.23486E-02   -0.23486E-02  1320   0.136E-01 0.133E-05
CGA:  15    -0.112810648189E+04   -0.17910E-02   -0.17896E-02  1320   0.138E-01 0.316E-04
CGA:  16    -0.112810774047E+04   -0.12586E-02   -0.12587E-02  1320   0.929E-02 0.301E-04
CGA:  17    -0.112810839278E+04   -0.65232E-03   -0.65211E-03  1320   0.650E-02 0.659E-05
CGA:  18    -0.112810892266E+04   -0.52988E-03   -0.52998E-03  1320   0.363E-02 0.959E-05
CGA:  19    -0.112810938708E+04   -0.46442E-03   -0.46408E-03  1320   0.201E-02 0.811E-05
CGA:  20    -0.112810956467E+04   -0.17759E-03   -0.17758E-03  1320   0.160E-02-0.219E-05
CGA:  21    -0.112810970309E+04   -0.13842E-03   -0.13840E-03  1320   0.146E-02-0.388E-05
CGA:  22    -0.112810982056E+04   -0.11747E-03   -0.11743E-03  1320   0.936E-03-0.391E-05
CGA:  23    -0.112810991723E+04   -0.96671E-04   -0.96704E-04  1320   0.533E-03-0.292E-05
CGA:  24    -0.112810998138E+04   -0.64150E-04   -0.64253E-04  1320   0.502E-03-0.361E-05
CGA:  25    -0.112811002903E+04   -0.47647E-04   -0.47655E-04  1320   0.415E-03-0.396E-05
CGA:  26    -0.112811005405E+04   -0.25023E-04   -0.24936E-04  1320   0.217E-03-0.281E-05
CGA:  27    -0.112811007930E+04   -0.25253E-04   -0.25332E-04  1320   0.137E-03-0.313E-05
CGA:  28    -0.112811009756E+04   -0.18261E-04   -0.18341E-04  1320   0.107E-03-0.193E-05
CGA:  29    -0.112811010480E+04   -0.72332E-05   -0.72370E-05  1320   0.762E-04 0.102E-06
   5 F= -.11281101E+04 E0= -.11280833E+04  d E =-.232581E+00  mag=    20.0000
       N       E                     dE             d eps       ncg     rms          ort
SDA:   1    -0.110987708513E+04    0.18233E+02    0.00000E+00  1320   0.682E+02 0.000E+00
CGA:   2    -0.111967142463E+04   -0.97943E+01   -0.97855E+01  1320   0.419E+02 0.199E+00
CGA:   3    -0.112330927249E+04   -0.36378E+01   -0.36154E+01  1320   0.309E+02-0.949E+00
CGA:   4    -0.112605031232E+04   -0.27410E+01   -0.27469E+01  1320   0.247E+02 0.536E+00
CGA:   5    -0.112741568875E+04   -0.13654E+01   -0.13979E+01  1320   0.464E+01-0.496E-01
CGA:   6    -0.112783599198E+04   -0.42030E+00   -0.42020E+00  1320   0.239E+01-0.176E-01
CGA:   7    -0.112807186251E+04   -0.23587E+00   -0.23591E+00  1320   0.886E+00-0.333E-02
CGA:   8    -0.112814337876E+04   -0.71516E-01   -0.71660E-01  1320   0.423E+00 0.402E-02
CGA:   9    -0.112816994610E+04   -0.26567E-01   -0.26545E-01  1320   0.252E+00 0.552E-04
CGA:  10    -0.112819452007E+04   -0.24574E-01   -0.24563E-01  1320   0.102E+00 0.102E-02
CGA:  11    -0.112820642183E+04   -0.11902E-01   -0.11903E-01  1320   0.644E-01-0.435E-04
CGA:  12    -0.112821260800E+04   -0.61862E-02   -0.61848E-02  1320   0.538E-01 0.232E-03
CGA:  13    -0.112821751355E+04   -0.49056E-02   -0.49058E-02  1320   0.330E-01 0.438E-04
CGA:  14    -0.112821986784E+04   -0.23543E-02   -0.23551E-02  1320   0.216E-01 0.187E-04
CGA:  15    -0.112822226459E+04   -0.23967E-02   -0.23958E-02  1320   0.152E-01 0.471E-04
CGA:  16    -0.112822419822E+04   -0.19336E-02   -0.19312E-02  1320   0.102E-01 0.635E-04
CGA:  17    -0.112822515927E+04   -0.96105E-03   -0.96106E-03  1320   0.715E-02 0.200E-04
CGA:  18    -0.112822573561E+04   -0.57634E-03   -0.57675E-03  1320   0.559E-02 0.192E-04
CGA:  19    -0.112822624410E+04   -0.50848E-03   -0.50850E-03  1320   0.285E-02 0.655E-05
CGA:  20    -0.112822653135E+04   -0.28725E-03   -0.28724E-03  1320   0.173E-02-0.259E-06
CGA:  21    -0.112822676722E+04   -0.23587E-03   -0.23616E-03  1320   0.164E-02-0.636E-05
CGA:  22    -0.112822689750E+04   -0.13028E-03   -0.13020E-03  1320   0.128E-02-0.545E-05
CGA:  23    -0.112822700251E+04   -0.10501E-03   -0.10493E-03  1320   0.683E-03-0.551E-05
CGA:  24    -0.112822709430E+04   -0.91790E-04   -0.91957E-04  1320   0.496E-03-0.418E-05
CGA:  25    -0.112822715011E+04   -0.55813E-04   -0.55891E-04  1320   0.351E-03-0.463E-05
CGA:  26    -0.112822717729E+04   -0.27181E-04   -0.27131E-04  1320   0.291E-03-0.259E-05
CGA:  27    -0.112822720398E+04   -0.26690E-04   -0.26681E-04  1320   0.144E-03-0.207E-05
CGA:  28    -0.112822722078E+04   -0.16800E-04   -0.16825E-04  1320   0.109E-03-0.119E-05
CGA:  29    -0.112822723189E+04   -0.11111E-04   -0.11114E-04  1320   0.820E-04-0.608E-06
CGA:  30    -0.112822723918E+04   -0.72864E-05   -0.72829E-05  1320   0.719E-04-0.381E-06
   6 F= -.11282272E+04 E0= -.11282022E+04  d E =-.117134E+00  mag=    19.9999
       N       E                     dE             d eps       ncg     rms          ort
SDA:   1    -0.111518085610E+04    0.13046E+02    0.00000E+00  1320   0.496E+02 0.000E+00
CGA:   2    -0.112271653794E+04   -0.75357E+01   -0.75598E+01  1320   0.277E+02-0.365E+00
CGA:   3    -0.112478154784E+04   -0.20650E+01   -0.21138E+01  1320   0.225E+02 0.560E+00
CGA:   4    -0.112688710311E+04   -0.21056E+01   -0.21044E+01  1320   0.137E+02-0.651E-01
CGA:   5    -0.112775441027E+04   -0.86731E+00   -0.87653E+00  1320   0.264E+01 0.996E-02
CGA:   6    -0.112806934556E+04   -0.31494E+00   -0.31555E+00  1320   0.167E+01-0.185E-01
CGA:   7    -0.112820538662E+04   -0.13604E+00   -0.13618E+00  1320   0.571E+00 0.332E-02
CGA:   8    -0.112824583560E+04   -0.40449E-01   -0.40540E-01  1320   0.287E+00 0.593E-03
CGA:   9    -0.112826748955E+04   -0.21654E-01   -0.21697E-01  1320   0.166E+00 0.538E-03
CGA:  10    -0.112828314842E+04   -0.15659E-01   -0.15658E-01  1320   0.680E-01-0.326E-03
CGA:  11    -0.112829037224E+04   -0.72238E-02   -0.72194E-02  1320   0.468E-01 0.221E-03
CGA:  12    -0.112829569145E+04   -0.53192E-02   -0.53249E-02  1320   0.377E-01-0.213E-03
CGA:  13    -0.112829864642E+04   -0.29550E-02   -0.29573E-02  1320   0.237E-01 0.333E-04
CGA:  14    -0.112830061487E+04   -0.19684E-02   -0.19688E-02  1320   0.150E-01 0.151E-04
CGA:  15    -0.112830256236E+04   -0.19475E-02   -0.19463E-02  1320   0.122E-01 0.316E-04
CGA:  16    -0.112830400465E+04   -0.14423E-02   -0.14416E-02  1320   0.635E-02 0.286E-04
CGA:  17    -0.112830459716E+04   -0.59252E-03   -0.59259E-03  1320   0.636E-02 0.154E-04
CGA:  18    -0.112830512463E+04   -0.52746E-03   -0.52772E-03  1320   0.319E-02 0.158E-04
CGA:  19    -0.112830546025E+04   -0.33562E-03   -0.33551E-03  1320   0.166E-02 0.109E-04
CGA:  20    -0.112830566888E+04   -0.20863E-03   -0.20861E-03  1320   0.148E-02 0.728E-06
CGA:  21    -0.112830581190E+04   -0.14302E-03   -0.14302E-03  1320   0.118E-02-0.223E-05
CGA:  22    -0.112830591052E+04   -0.98619E-04   -0.98577E-04  1320   0.763E-03-0.311E-05
CGA:  23    -0.112830598705E+04   -0.76532E-04   -0.76544E-04  1320   0.531E-03-0.381E-05
CGA:  24    -0.112830604600E+04   -0.58949E-04   -0.58995E-04  1320   0.335E-03-0.329E-05
CGA:  25    -0.112830608574E+04   -0.39738E-04   -0.39785E-04  1320   0.244E-03-0.227E-05
CGA:  26    -0.112830610427E+04   -0.18534E-04   -0.18509E-04  1320   0.176E-03-0.108E-05
CGA:  27    -0.112830612126E+04   -0.16994E-04   -0.16992E-04  1320   0.968E-04-0.158E-05
CGA:  28    -0.112830613347E+04   -0.12206E-04   -0.12244E-04  1320   0.634E-04-0.133E-05
CGA:  29    -0.112830614008E+04   -0.66124E-05   -0.66164E-05  1320   0.587E-04-0.697E-06
   7 F= -.11283061E+04 E0= -.11282817E+04  d E =-.789009E-01  mag=    19.9997
       N       E                     dE             d eps       ncg     rms          ort
SDA:   1    -0.112624843520E+04    0.20577E+01    0.00000E+00  1320   0.717E+01 0.000E+00
CGA:   2    -0.112742969705E+04   -0.11813E+01   -0.11827E+01  1320   0.535E+01-0.190E-01
CGA:   3    -0.112776608883E+04   -0.33639E+00   -0.34457E+00  1320   0.371E+01-0.113E-01
CGA:   4    -0.112815226530E+04   -0.38618E+00   -0.38641E+00  1320   0.211E+01-0.338E-01
CGA:   5    -0.112828826870E+04   -0.13600E+00   -0.13826E+00  1320   0.442E+00-0.160E-02
CGA:   6    -0.112833820838E+04   -0.49940E-01   -0.49974E-01  1320   0.250E+00-0.150E-02
CGA:   7    -0.112836031887E+04   -0.22110E-01   -0.22122E-01  1320   0.860E-01 0.422E-03
CGA:   8    -0.112836570900E+04   -0.53901E-02   -0.53739E-02  1320   0.433E-01 0.771E-04
CGA:   9    -0.112836961088E+04   -0.39019E-02   -0.39028E-02  1320   0.257E-01 0.709E-04
CGA:  10    -0.112837186584E+04   -0.22550E-02   -0.22549E-02  1320   0.118E-01 0.128E-04
CGA:  11    -0.112837318733E+04   -0.13215E-02   -0.13218E-02  1320   0.720E-02-0.974E-05
CGA:  12    -0.112837396759E+04   -0.78026E-03   -0.78029E-03  1320   0.648E-02-0.253E-05
CGA:  13    -0.112837447914E+04   -0.51154E-03   -0.51159E-03  1320   0.341E-02-0.287E-05
CGA:  14    -0.112837474552E+04   -0.26639E-03   -0.26621E-03  1320   0.236E-02-0.631E-05
CGA:  15    -0.112837510486E+04   -0.35934E-03   -0.36022E-03  1320   0.144E-02-0.157E-04
CGA:  16    -0.112837527576E+04   -0.17090E-03   -0.17105E-03  1320   0.109E-02-0.700E-05
CGA:  17    -0.112837536179E+04   -0.86030E-04   -0.85984E-04  1320   0.842E-03-0.295E-05
CGA:  18    -0.112837543854E+04   -0.76747E-04   -0.76732E-04  1320   0.464E-03-0.192E-05
CGA:  19    -0.112837548644E+04   -0.47903E-04   -0.47905E-04  1320   0.244E-03-0.403E-06
CGA:  20    -0.112837551645E+04   -0.30008E-04   -0.29996E-04  1320   0.229E-03 0.485E-06
CGA:  21    -0.112837553845E+04   -0.22001E-04   -0.22001E-04  1320   0.188E-03 0.115E-06
CGA:  22    -0.112837555389E+04   -0.15444E-04   -0.15445E-04  1320   0.114E-03 0.681E-07
CGA:  23    -0.112837556611E+04   -0.12217E-04   -0.12217E-04  1320   0.857E-04-0.969E-08
CGA:  24    -0.112837557656E+04   -0.10451E-04   -0.10444E-04  1320   0.569E-04 0.243E-06
CGA:  25    -0.112837558233E+04   -0.57653E-05   -0.57657E-05  1320   0.449E-04-0.819E-07
   8 F= -.11283756E+04 E0= -.11283513E+04  d E =-.694422E-01  mag=    19.9997
       N       E                     dE             d eps       ncg     rms          ort
SDA:   1    -0.112616938004E+04    0.22062E+01    0.00000E+00  1320   0.764E+01 0.000E+00
CGA:   2    -0.112745897467E+04   -0.12896E+01   -0.12948E+01  1320   0.655E+01-0.677E-01
CGA:   3    -0.112779714514E+04   -0.33817E+00   -0.35353E+00  1320   0.334E+01-0.105E+00
CGA:   4    -0.112821615502E+04   -0.41901E+00   -0.41977E+00  1320   0.155E+01-0.204E-01
CGA:   5    -0.112832140851E+04   -0.10525E+00   -0.10560E+00  1320   0.515E+00 0.222E-03
CGA:   6    -0.112837341260E+04   -0.52004E-01   -0.52004E-01  1320   0.359E+00 0.516E-03
CGA:   7    -0.112839703217E+04   -0.23620E-01   -0.23700E-01  1320   0.121E+00 0.249E-04
CGA:   8    -0.112840564815E+04   -0.86160E-02   -0.85977E-02  1320   0.434E-01-0.507E-04
CGA:   9    -0.112841028163E+04   -0.46335E-02   -0.46315E-02  1320   0.290E-01 0.124E-03
CGA:  10    -0.112841273182E+04   -0.24502E-02   -0.24492E-02  1320   0.140E-01-0.232E-04
CGA:  11    -0.112841393530E+04   -0.12035E-02   -0.12034E-02  1320   0.115E-01-0.393E-05
CGA:  12    -0.112841503294E+04   -0.10976E-02   -0.10976E-02  1320   0.666E-02-0.910E-06
CGA:  13    -0.112841578798E+04   -0.75503E-03   -0.75489E-03  1320   0.424E-02 0.554E-05
CGA:  14    -0.112841621711E+04   -0.42913E-03   -0.42916E-03  1320   0.386E-02-0.682E-05
CGA:  15    -0.112841657971E+04   -0.36261E-03   -0.36260E-03  1320   0.311E-02-0.379E-05
CGA:  16    -0.112841687282E+04   -0.29310E-03   -0.29309E-03  1320   0.164E-02-0.216E-05
CGA:  17    -0.112841705022E+04   -0.17741E-03   -0.17738E-03  1320   0.109E-02 0.183E-05
CGA:  18    -0.112841716326E+04   -0.11304E-03   -0.11302E-03  1320   0.876E-03 0.226E-05
CGA:  19    -0.112841722722E+04   -0.63957E-04   -0.64018E-04  1320   0.444E-03 0.198E-05
CGA:  20    -0.112841727667E+04   -0.49451E-04   -0.49422E-04  1320   0.308E-03 0.205E-05
CGA:  21    -0.112841731536E+04   -0.38690E-04   -0.38707E-04  1320   0.259E-03-0.587E-06
CGA:  22    -0.112841733718E+04   -0.21822E-04   -0.21811E-04  1320   0.188E-03-0.789E-06
CGA:  23    -0.112841735463E+04   -0.17451E-04   -0.17445E-04  1320   0.126E-03-0.108E-05
CGA:  24    -0.112841736997E+04   -0.15343E-04   -0.15365E-04  1320   0.972E-04-0.890E-06
CGA:  25    -0.112841737874E+04   -0.87715E-05   -0.87709E-05  1320   0.616E-04-0.117E-06
   9 F= -.11284174E+04 E0= -.11283937E+04  d E =-.417964E-01  mag=    19.9997
       N       E                     dE             d eps       ncg     rms          ort
SDA:   1    -0.111716722650E+04    0.11250E+02    0.00000E+00  1320   0.390E+02 0.000E+00
CGA:   2    -0.112401824518E+04   -0.68510E+01   -0.69007E+01  1320   0.252E+02-0.615E+00
CGA:   3    -0.112565120107E+04   -0.16330E+01   -0.17469E+01  1320   0.182E+02 0.465E+00
CGA:   4    -0.112744073380E+04   -0.17895E+01   -0.17893E+01  1320   0.836E+01-0.230E-01
CGA:   5    -0.112798439992E+04   -0.54367E+00   -0.53805E+00  1320   0.253E+01 0.102E-01
CGA:   6    -0.112826233209E+04   -0.27793E+00   -0.27795E+00  1320   0.152E+01-0.938E-03
CGA:   7    -0.112838682868E+04   -0.12450E+00   -0.12469E+00  1320   0.499E+00 0.371E-02
CGA:   8    -0.112841930264E+04   -0.32474E-01   -0.32393E-01  1320   0.256E+00 0.132E-03
CGA:   9    -0.112844291296E+04   -0.23610E-01   -0.23615E-01  1320   0.124E+00 0.401E-03
CGA:  10    -0.112845552424E+04   -0.12611E-01   -0.12612E-01  1320   0.591E-01-0.343E-04
CGA:  11    -0.112846176890E+04   -0.62447E-02   -0.62417E-02  1320   0.545E-01 0.217E-03
CGA:  12    -0.112846675637E+04   -0.49875E-02   -0.49868E-02  1320   0.371E-01-0.296E-04
CGA:  13    -0.112846983625E+04   -0.30799E-02   -0.30804E-02  1320   0.209E-01 0.165E-04
CGA:  14    -0.112847256005E+04   -0.27238E-02   -0.27232E-02  1320   0.163E-01 0.142E-04
CGA:  15    -0.112847452854E+04   -0.19685E-02   -0.19682E-02  1320   0.149E-01 0.882E-05
CGA:  16    -0.112847572116E+04   -0.11926E-02   -0.11925E-02  1320   0.858E-02-0.217E-06
CGA:  17    -0.112847656146E+04   -0.84029E-03   -0.84030E-03  1320   0.622E-02 0.158E-04
CGA:  18    -0.112847715868E+04   -0.59723E-03   -0.59725E-03  1320   0.290E-02 0.104E-04
CGA:  19    -0.112847749850E+04   -0.33982E-03   -0.33960E-03  1320   0.223E-02 0.107E-04
CGA:  20    -0.112847769936E+04   -0.20086E-03   -0.20086E-03  1320   0.181E-02 0.155E-05
CGA:  21    -0.112847787238E+04   -0.17302E-03   -0.17301E-03  1320   0.111E-02-0.225E-05
CGA:  22    -0.112847799135E+04   -0.11897E-03   -0.11900E-03  1320   0.744E-03-0.346E-05
CGA:  23    -0.112847808348E+04   -0.92132E-04   -0.92246E-04  1320   0.590E-03-0.441E-05
CGA:  24    -0.112847813379E+04   -0.50310E-04   -0.50292E-04  1320   0.432E-03-0.115E-05
CGA:  25    -0.112847817428E+04   -0.40482E-04   -0.40483E-04  1320   0.258E-03-0.228E-07
CGA:  26    -0.112847820318E+04   -0.28901E-04   -0.28898E-04  1320   0.171E-03 0.315E-06
CGA:  27    -0.112847822076E+04   -0.17582E-04   -0.17584E-04  1320   0.120E-03-0.769E-06
CGA:  28    -0.112847823346E+04   -0.12698E-04   -0.12703E-04  1320   0.110E-03-0.101E-05
CGA:  29    -0.112847824262E+04   -0.91624E-05   -0.91488E-05  1320   0.644E-04-0.810E-06
  10 F= -.11284782E+04 E0= -.11284559E+04  d E =-.608639E-01  mag=    19.9996
       N       E                     dE             d eps       ncg     rms          ort
SDA:   1    -0.110366600462E+04    0.24812E+02    0.00000E+00  1320   0.818E+02 0.000E+00
CGA:   2    -0.111915525196E+04   -0.15489E+02   -0.15483E+02  1320   0.381E+02 0.102E+00
CGA:   3    -0.112457656007E+04   -0.54213E+01   -0.54265E+01  1320   0.282E+02-0.210E+00
CGA:   4    -0.112698040865E+04   -0.24038E+01   -0.24225E+01  1320   0.109E+02 0.289E+00
CGA:   5    -0.112765460892E+04   -0.67420E+00   -0.67644E+00  1320   0.501E+01-0.235E-01
CGA:   6    -0.112813443731E+04   -0.47983E+00   -0.48013E+00  1320   0.267E+01 0.170E-01
CGA:   7    -0.112833120748E+04   -0.19677E+00   -0.19772E+00  1320   0.655E+00 0.401E-02
CGA:   8    -0.112839406539E+04   -0.62858E-01   -0.62835E-01  1320   0.356E+00-0.156E-02
CGA:   9    -0.112843697721E+04   -0.42912E-01   -0.42880E-01  1320   0.168E+00 0.111E-02
CGA:  10    -0.112845399714E+04   -0.17020E-01   -0.17018E-01  1320   0.107E+00-0.474E-03
CGA:  11    -0.112846664467E+04   -0.12648E-01   -0.12646E-01  1320   0.985E-01 0.101E-03
CGA:  12    -0.112847387374E+04   -0.72291E-02   -0.72358E-02  1320   0.562E-01 0.622E-04
CGA:  13    -0.112847979794E+04   -0.59242E-02   -0.59242E-02  1320   0.330E-01 0.129E-05
CGA:  14    -0.112848535458E+04   -0.55566E-02   -0.55546E-02  1320   0.303E-01 0.249E-04
CGA:  15    -0.112848872090E+04   -0.33663E-02   -0.33666E-02  1320   0.153E-01-0.355E-04
CGA:  16    -0.112849051346E+04   -0.17926E-02   -0.17921E-02  1320   0.147E-01 0.291E-04
CGA:  17    -0.112849162341E+04   -0.11100E-02   -0.11107E-02  1320   0.817E-02 0.129E-04
CGA:  18    -0.112849244280E+04   -0.81939E-03   -0.81939E-03  1320   0.394E-02 0.437E-05
CGA:  19    -0.112849292708E+04   -0.48428E-03   -0.48422E-03  1320   0.358E-02 0.851E-06
CGA:  20    -0.112849335318E+04   -0.42610E-03   -0.42625E-03  1320   0.198E-02-0.105E-04
CGA:  21    -0.112849356829E+04   -0.21510E-03   -0.21512E-03  1320   0.152E-02-0.588E-05
CGA:  22    -0.112849371845E+04   -0.15016E-03   -0.15015E-03  1320   0.144E-02-0.103E-05
CGA:  23    -0.112849385126E+04   -0.13281E-03   -0.13281E-03  1320   0.689E-03-0.113E-06
CGA:  24    -0.112849392280E+04   -0.71544E-04   -0.71543E-04  1320   0.440E-03-0.214E-06
CGA:  25    -0.112849398249E+04   -0.59685E-04   -0.59685E-04  1320   0.296E-03-0.512E-07
CGA:  26    -0.112849401365E+04   -0.31161E-04   -0.31160E-04  1320   0.200E-03-0.672E-06
CGA:  27    -0.112849403032E+04   -0.16675E-04   -0.16657E-04  1320   0.167E-03-0.823E-06
CGA:  28    -0.112849404906E+04   -0.18740E-04   -0.18741E-04  1320   0.958E-04-0.429E-07
CGA:  29    -0.112849406141E+04   -0.12343E-04   -0.12316E-04  1320   0.709E-04 0.119E-05
CGA:  30    -0.112849407202E+04   -0.10614E-04   -0.10555E-04  1320   0.657E-04 0.146E-05
CGA:  31    -0.112849407897E+04   -0.69504E-05   -0.69524E-05  1320   0.524E-04 0.340E-06
  11 F= -.11284941E+04 E0= -.11284737E+04  d E =-.158364E-01  mag=    19.9996
       N       E                     dE             d eps       ncg     rms          ort
SDA:   1    -0.111217871759E+04    0.16315E+02    0.00000E+00  1320   0.556E+02 0.000E+00
CGA:   2    -0.112233046572E+04   -0.10152E+02   -0.10175E+02  1320   0.295E+02-0.297E+00
CGA:   3    -0.112501671530E+04   -0.26862E+01   -0.27398E+01  1320   0.237E+02 0.102E+01
CGA:   4    -0.112710855414E+04   -0.20918E+01   -0.20633E+01  1320   0.964E+01-0.647E-01
CGA:   5    -0.112776109048E+04   -0.65254E+00   -0.64925E+00  1320   0.384E+01 0.532E-04
CGA:   6    -0.112813702591E+04   -0.37594E+00   -0.37657E+00  1320   0.193E+01 0.271E-01
CGA:   7    -0.112832578214E+04   -0.18876E+00   -0.18854E+00  1320   0.475E+00-0.820E-02
CGA:   8    -0.112837022099E+04   -0.44439E-01   -0.44491E-01  1320   0.240E+00 0.154E-02
CGA:   9    -0.112839826842E+04   -0.28047E-01   -0.28052E-01  1320   0.120E+00-0.270E-03
CGA:  10    -0.112841104721E+04   -0.12779E-01   -0.12779E-01  1320   0.663E-01 0.105E-02
CGA:  11    -0.112842041359E+04   -0.93664E-02   -0.93667E-02  1320   0.501E-01 0.911E-05
CGA:  12    -0.112842606886E+04   -0.56553E-02   -0.56541E-02  1320   0.317E-01 0.174E-03
CGA:  13    -0.112842981922E+04   -0.37504E-02   -0.37502E-02  1320   0.241E-01 0.115E-04
CGA:  14    -0.112843298138E+04   -0.31622E-02   -0.31620E-02  1320   0.285E-01-0.275E-05
CGA:  15    -0.112843501183E+04   -0.20305E-02   -0.20311E-02  1320   0.114E-01-0.107E-04
CGA:  16    -0.112843636532E+04   -0.13535E-02   -0.13534E-02  1320   0.893E-02 0.937E-05
CGA:  17    -0.112843736205E+04   -0.99673E-03   -0.99668E-03  1320   0.430E-02 0.134E-04
CGA:  18    -0.112843786017E+04   -0.49812E-03   -0.49811E-03  1320   0.264E-02 0.326E-05
CGA:  19    -0.112843820719E+04   -0.34702E-03   -0.34702E-03  1320   0.263E-02-0.376E-06
CGA:  20    -0.112843843365E+04   -0.22645E-03   -0.22637E-03  1320   0.159E-02-0.334E-05
CGA:  21    -0.112843857483E+04   -0.14119E-03   -0.14110E-03  1320   0.108E-02-0.352E-05
CGA:  22    -0.112843871735E+04   -0.14252E-03   -0.14254E-03  1320   0.770E-03-0.918E-06
CGA:  23    -0.112843880487E+04   -0.87518E-04   -0.87521E-04  1320   0.392E-03-0.555E-06
CGA:  24    -0.112843885222E+04   -0.47353E-04   -0.47347E-04  1320   0.333E-03 0.463E-06
CGA:  25    -0.112843888670E+04   -0.34476E-04   -0.34479E-04  1320   0.225E-03 0.422E-06
CGA:  26    -0.112843890325E+04   -0.16548E-04   -0.16566E-04  1320   0.117E-03 0.479E-06
CGA:  27    -0.112843891759E+04   -0.14342E-04   -0.14336E-04  1320   0.840E-04 0.395E-06
CGA:  28    -0.112843892871E+04   -0.11118E-04   -0.11096E-04  1320   0.574E-04 0.902E-06
CGA:  29    -0.112843893525E+04   -0.65416E-05   -0.65391E-05  1320   0.428E-04 0.785E-06
  12 F= -.11284389E+04 E0= -.11284196E+04  d E =0.551437E-01  mag=    19.9998
       N       E                     dE             d eps       ncg     rms          ort
SDA:   1    -0.112377186766E+04    0.46671E+01    0.00000E+00  1320   0.170E+02 0.000E+00
CGA:   2    -0.112672367443E+04   -0.29518E+01   -0.29548E+01  1320   0.860E+01-0.387E-01
CGA:   3    -0.112749420690E+04   -0.77053E+00   -0.77262E+00  1320   0.688E+01 0.200E-01
CGA:   4    -0.112804287586E+04   -0.54867E+00   -0.55004E+00  1320   0.312E+01 0.770E-02
CGA:   5    -0.112827719962E+04   -0.23432E+00   -0.23538E+00  1320   0.111E+01 0.788E-03
CGA:   6    -0.112838850201E+04   -0.11130E+00   -0.11114E+00  1320   0.659E+00-0.659E-02
CGA:   7    -0.112844776257E+04   -0.59261E-01   -0.59375E-01  1320   0.167E+00 0.190E-02
CGA:   8    -0.112846316096E+04   -0.15398E-01   -0.15394E-01  1320   0.735E-01-0.941E-04
CGA:   9    -0.112847106772E+04   -0.79068E-02   -0.79067E-02  1320   0.528E-01 0.752E-04
CGA:  10    -0.112847488285E+04   -0.38151E-02   -0.38195E-02  1320   0.302E-01 0.114E-04
CGA:  11    -0.112847807552E+04   -0.31927E-02   -0.31927E-02  1320   0.172E-01 0.274E-04
CGA:  12    -0.112848045027E+04   -0.23747E-02   -0.23723E-02  1320   0.140E-01 0.628E-04
CGA:  13    -0.112848204515E+04   -0.15949E-02   -0.15948E-02  1320   0.785E-02 0.997E-05
CGA:  14    -0.112848316464E+04   -0.11195E-02   -0.11188E-02  1320   0.812E-02 0.191E-04
CGA:  15    -0.112848392964E+04   -0.76500E-03   -0.76512E-03  1320   0.610E-02 0.798E-05
CGA:  16    -0.112848441733E+04   -0.48769E-03   -0.48772E-03  1320   0.279E-02 0.312E-05
CGA:  17    -0.112848474681E+04   -0.32948E-03   -0.32945E-03  1320   0.201E-02 0.147E-05
CGA:  18    -0.112848493892E+04   -0.19211E-03   -0.19209E-03  1320   0.103E-02-0.968E-06
CGA:  19    -0.112848506768E+04   -0.12876E-03   -0.12879E-03  1320   0.628E-03-0.172E-05
CGA:  20    -0.112848514061E+04   -0.72927E-04   -0.72934E-04  1320   0.657E-03-0.850E-06
CGA:  21    -0.112848519110E+04   -0.50490E-04   -0.50456E-04  1320   0.341E-03-0.108E-05
CGA:  22    -0.112848523455E+04   -0.43457E-04   -0.43482E-04  1320   0.219E-03-0.120E-05
CGA:  23    -0.112848526395E+04   -0.29397E-04   -0.29409E-04  1320   0.155E-03-0.452E-06
CGA:  24    -0.112848528062E+04   -0.16674E-04   -0.16674E-04  1320   0.123E-03 0.312E-08
CGA:  25    -0.112848529194E+04   -0.11311E-04   -0.11312E-04  1320   0.818E-04 0.118E-06
CGA:  26    -0.112848529927E+04   -0.73345E-05   -0.73373E-05  1320   0.486E-04 0.156E-06
  13 F= -.11284853E+04 E0= -.11284654E+04  d E =-.463640E-01  mag=    19.9998
       N       E                     dE             d eps       ncg     rms          ort
SDA:   1    -0.112296618899E+04    0.55191E+01    0.00000E+00  1320   0.181E+02 0.000E+00
CGA:   2    -0.112661948195E+04   -0.36533E+01   -0.36553E+01  1320   0.943E+01-0.156E-01
CGA:   3    -0.112744400448E+04   -0.82452E+00   -0.83057E+00  1320   0.692E+01 0.534E-01
CGA:   4    -0.112799723871E+04   -0.55323E+00   -0.55239E+00  1320   0.335E+01 0.278E-02
CGA:   5    -0.112824272187E+04   -0.24548E+00   -0.24518E+00  1320   0.110E+01 0.226E-02
CGA:   6    -0.112838921118E+04   -0.14649E+00   -0.14667E+00  1320   0.530E+00-0.471E-02
CGA:   7    -0.112843383240E+04   -0.44621E-01   -0.44753E-01  1320   0.125E+00 0.114E-02
CGA:   8    -0.112844693263E+04   -0.13100E-01   -0.13098E-01  1320   0.102E+00-0.318E-03
CGA:   9    -0.112845437264E+04   -0.74400E-02   -0.74363E-02  1320   0.537E-01-0.161E-04
CGA:  10    -0.112845940420E+04   -0.50316E-02   -0.50329E-02  1320   0.270E-01 0.428E-04
CGA:  11    -0.112846316115E+04   -0.37570E-02   -0.37558E-02  1320   0.190E-01 0.337E-04
CGA:  12    -0.112846572268E+04   -0.25615E-02   -0.25606E-02  1320   0.147E-01 0.320E-04
CGA:  13    -0.112846719033E+04   -0.14677E-02   -0.14679E-02  1320   0.122E-01 0.193E-04
CGA:  14    -0.112846856489E+04   -0.13746E-02   -0.13745E-02  1320   0.106E-01 0.825E-05
CGA:  15    -0.112846949972E+04   -0.93483E-03   -0.93452E-03  1320   0.701E-02-0.136E-05
CGA:  16    -0.112847018529E+04   -0.68557E-03   -0.68563E-03  1320   0.346E-02 0.511E-05
CGA:  17    -0.112847059749E+04   -0.41220E-03   -0.41214E-03  1320   0.187E-02 0.527E-05
CGA:  18    -0.112847084427E+04   -0.24678E-03   -0.24667E-03  1320   0.152E-02 0.444E-05
CGA:  19    -0.112847096227E+04   -0.11800E-03   -0.11800E-03  1320   0.968E-03 0.454E-06
CGA:  20    -0.112847105901E+04   -0.96735E-04   -0.96715E-04  1320   0.648E-03-0.251E-05
CGA:  21    -0.112847113397E+04   -0.74958E-04   -0.74981E-04  1320   0.417E-03-0.251E-05
CGA:  22    -0.112847119062E+04   -0.56647E-04   -0.56714E-04  1320   0.261E-03-0.222E-05
CGA:  23    -0.112847121805E+04   -0.27430E-04   -0.27429E-04  1320   0.239E-03-0.176E-06
CGA:  24    -0.112847123855E+04   -0.20508E-04   -0.20507E-04  1320   0.156E-03-0.240E-07
CGA:  25    -0.112847125560E+04   -0.17051E-04   -0.17051E-04  1320   0.736E-04 0.333E-06
CGA:  26    -0.112847126376E+04   -0.81547E-05   -0.81545E-05  1320   0.574E-04-0.478E-07
  14 F= -.11284713E+04 E0= -.11284512E+04  d E =0.140355E-01  mag=    19.9998
       N       E                     dE             d eps       ncg     rms          ort
SDA:   1    -0.108968511639E+04    0.38786E+02    0.00000E+00  1320   0.161E+03 0.000E+00
CGA:   2    -0.111066031944E+04   -0.20975E+02   -0.20932E+02  1320   0.728E+02 0.141E+01
CGA:   3    -0.111783363327E+04   -0.71733E+01   -0.70098E+01  1320   0.680E+02-0.435E+01
CGA:   4    -0.112343323422E+04   -0.55996E+01   -0.55343E+01  1320   0.365E+02-0.421E+00
CGA:   5    -0.112598469924E+04   -0.25515E+01   -0.25318E+01  1320   0.104E+02 0.351E+00
CGA:   6    -0.112690095883E+04   -0.91626E+00   -0.92039E+00  1320   0.512E+01 0.578E-01
CGA:   7    -0.112733499523E+04   -0.43404E+00   -0.43571E+00  1320   0.231E+01 0.230E-01
CGA:   8    -0.112750386921E+04   -0.16887E+00   -0.16914E+00  1320   0.119E+01 0.195E-02
CGA:   9    -0.112757755229E+04   -0.73683E-01   -0.74760E-01  1320   0.493E+00-0.324E-02
CGA:  10    -0.112763140351E+04   -0.53851E-01   -0.53800E-01  1320   0.229E+00 0.331E-02
CGA:  11    -0.112765746277E+04   -0.26059E-01   -0.26042E-01  1320   0.151E+00 0.897E-03
CGA:  12    -0.112767228655E+04   -0.14824E-01   -0.14832E-01  1320   0.134E+00 0.104E-02
CGA:  13    -0.112768228001E+04   -0.99935E-02   -0.10034E-01  1320   0.692E-01 0.253E-03
CGA:  14    -0.112768988254E+04   -0.76025E-02   -0.75997E-02  1320   0.431E-01 0.175E-03
CGA:  15    -0.112769565629E+04   -0.57737E-02   -0.57686E-02  1320   0.305E-01 0.114E-03
CGA:  16    -0.112769956109E+04   -0.39048E-02   -0.39016E-02  1320   0.218E-01 0.871E-04
CGA:  17    -0.112770159776E+04   -0.20367E-02   -0.20376E-02  1320   0.186E-01 0.391E-04
CGA:  18    -0.112770313316E+04   -0.15354E-02   -0.15359E-02  1320   0.913E-02 0.450E-05
CGA:  19    -0.112770414863E+04   -0.10155E-02   -0.10155E-02  1320   0.497E-02-0.395E-05
CGA:  20    -0.112770479614E+04   -0.64751E-03   -0.64743E-03  1320   0.333E-02 0.229E-05
CGA:  21    -0.112770522960E+04   -0.43345E-03   -0.43349E-03  1320   0.237E-02-0.182E-05
CGA:  22    -0.112770549503E+04   -0.26544E-03   -0.26548E-03  1320   0.206E-02-0.433E-05
CGA:  23    -0.112770568726E+04   -0.19222E-03   -0.19220E-03  1320   0.143E-02-0.295E-05
CGA:  24    -0.112770582125E+04   -0.13399E-03   -0.13396E-03  1320   0.984E-03-0.268E-05
CGA:  25    -0.112770592630E+04   -0.10505E-03   -0.10506E-03  1320   0.649E-03-0.364E-05
CGA:  26    -0.112770600775E+04   -0.81448E-04   -0.81452E-04  1320   0.382E-03-0.333E-06
CGA:  27    -0.112770605976E+04   -0.52007E-04   -0.51946E-04  1320   0.284E-03 0.194E-05
CGA:  28    -0.112770609907E+04   -0.39316E-04   -0.39285E-04  1320   0.190E-03 0.911E-06
CGA:  29    -0.112770612681E+04   -0.27735E-04   -0.27719E-04  1320   0.169E-03 0.393E-06
CGA:  30    -0.112770614677E+04   -0.19964E-04   -0.19970E-04  1320   0.184E-03-0.716E-06
CGA:  31    -0.112770616170E+04   -0.14925E-04   -0.14919E-04  1320   0.117E-03-0.274E-06
SDA:  32    -0.112770617679E+04   -0.15096E-04   -0.15080E-04  1320   0.859E-04 0.761E-06
CGA:  33    -0.112770618317E+04   -0.63765E-05   -0.63872E-05  1320   0.408E-04 0.266E-06
  15 F= -.11277062E+04 E0= -.11276862E+04  d E =0.765081E+00  mag=    19.9995
       N       E                     dE             d eps       ncg     rms          ort
SDA:   1    -0.111133459430E+04    0.16372E+02    0.00000E+00  1320   0.752E+02 0.000E+00
CGA:   2    -0.112114082725E+04   -0.98062E+01   -0.98197E+01  1320   0.266E+02-0.465E+00
CGA:   3    -0.112450235135E+04   -0.33615E+01   -0.33406E+01  1320   0.245E+02 0.901E+00
CGA:   4    -0.112707086580E+04   -0.25685E+01   -0.25647E+01  1320   0.143E+02-0.868E-01
CGA:   5    -0.112788748067E+04   -0.81661E+00   -0.80084E+00  1320   0.359E+01 0.288E+00
CGA:   6    -0.112815934818E+04   -0.27187E+00   -0.27857E+00  1320   0.178E+01 0.156E-01
CGA:   7    -0.112832481142E+04   -0.16546E+00   -0.16520E+00  1320   0.660E+00-0.536E-02
CGA:   8    -0.112838133787E+04   -0.56526E-01   -0.56669E-01  1320   0.337E+00 0.176E-02
CGA:   9    -0.112840686833E+04   -0.25530E-01   -0.25520E-01  1320   0.198E+00 0.582E-04
CGA:  10    -0.112842224776E+04   -0.15379E-01   -0.15365E-01  1320   0.953E-01 0.474E-04
CGA:  11    -0.112843138033E+04   -0.91326E-02   -0.91358E-02  1320   0.459E-01 0.183E-03
CGA:  12    -0.112843770650E+04   -0.63262E-02   -0.63261E-02  1320   0.322E-01 0.930E-05
CGA:  13    -0.112844027192E+04   -0.25654E-02   -0.25689E-02  1320   0.225E-01 0.426E-04
CGA:  14    -0.112844205900E+04   -0.17871E-02   -0.17899E-02  1320   0.132E-01 0.333E-04
CGA:  15    -0.112844369448E+04   -0.16355E-02   -0.16354E-02  1320   0.878E-02 0.615E-05
CGA:  16    -0.112844472373E+04   -0.10292E-02   -0.10289E-02  1320   0.573E-02 0.179E-04
CGA:  17    -0.112844537094E+04   -0.64721E-03   -0.64712E-03  1320   0.543E-02 0.113E-04
CGA:  18    -0.112844574597E+04   -0.37503E-03   -0.37549E-03  1320   0.265E-02 0.761E-05
CGA:  19    -0.112844603670E+04   -0.29073E-03   -0.29069E-03  1320   0.164E-02 0.462E-05
CGA:  20    -0.112844621658E+04   -0.17988E-03   -0.17989E-03  1320   0.116E-02-0.145E-05
CGA:  21    -0.112844633769E+04   -0.12111E-03   -0.12111E-03  1320   0.734E-03-0.290E-05
CGA:  22    -0.112844642263E+04   -0.84942E-04   -0.84963E-04  1320   0.793E-03-0.174E-05
CGA:  23    -0.112844648616E+04   -0.63525E-04   -0.63525E-04  1320   0.529E-03 0.261E-06
CGA:  24    -0.112844654275E+04   -0.56595E-04   -0.56590E-04  1320   0.324E-03 0.114E-05
CGA:  25    -0.112844658540E+04   -0.42646E-04   -0.42622E-04  1320   0.244E-03 0.827E-06
CGA:  26    -0.112844661280E+04   -0.27404E-04   -0.27409E-04  1320   0.180E-03-0.703E-06
CGA:  27    -0.112844662729E+04   -0.14489E-04   -0.14458E-04  1320   0.151E-03-0.131E-05
CGA:  28    -0.112844664342E+04   -0.16128E-04   -0.16135E-04  1320   0.893E-04-0.212E-05
CGA:  29    -0.112844665406E+04   -0.10638E-04   -0.10662E-04  1320   0.637E-04-0.151E-05
CGA:  30    -0.112844666263E+04   -0.85694E-05   -0.85591E-05  1320   0.585E-04 0.309E-06
  16 F= -.11284467E+04 E0= -.11284261E+04  d E =-.740479E+00  mag=    19.9996
       N       E                     dE             d eps       ncg     rms          ort
SDA:   1    -0.112829903382E+04    0.14762E+00    0.00000E+00  1320   0.676E+00 0.000E+00
CGA:   2    -0.112838220993E+04   -0.83176E-01   -0.83172E-01  1320   0.452E+00 0.130E-03
CGA:   3    -0.112840765781E+04   -0.25448E-01   -0.25375E-01  1320   0.208E+00 0.609E-03
CGA:   4    -0.112844098673E+04   -0.33329E-01   -0.33337E-01  1320   0.134E+00-0.133E-03
CGA:   5    -0.112845073767E+04   -0.97509E-02   -0.97493E-02  1320   0.304E-01-0.391E-05
CGA:   6    -0.112845378244E+04   -0.30448E-02   -0.30445E-02  1320   0.178E-01-0.225E-04
CGA:   7    -0.112845519855E+04   -0.14161E-02   -0.14171E-02  1320   0.778E-02 0.574E-05
CGA:   8    -0.112845573221E+04   -0.53366E-03   -0.53387E-03  1320   0.297E-02-0.319E-05
CGA:   9    -0.112845601268E+04   -0.28047E-03   -0.28040E-03  1320   0.164E-02-0.728E-05
CGA:  10    -0.112845616741E+04   -0.15473E-03   -0.15471E-03  1320   0.735E-03-0.265E-05
CGA:  11    -0.112845625165E+04   -0.84248E-04   -0.84227E-04  1320   0.518E-03 0.144E-05
CGA:  12    -0.112845630079E+04   -0.49134E-04   -0.49144E-04  1320   0.406E-03 0.148E-05
CGA:  13    -0.112845633377E+04   -0.32982E-04   -0.33003E-04  1320   0.210E-03 0.101E-05
CGA:  14    -0.112845635766E+04   -0.23887E-04   -0.23869E-04  1320   0.134E-03 0.146E-05
CGA:  15    -0.112845637582E+04   -0.18162E-04   -0.18144E-04  1320   0.111E-03 0.518E-06
CGA:  16    -0.112845638750E+04   -0.11683E-04   -0.11683E-04  1320   0.838E-04 0.282E-06
CGA:  17    -0.112845639381E+04   -0.63122E-05   -0.63148E-05  1320   0.499E-04 0.932E-07
  17 F= -.11284564E+04 E0= -.11284358E+04  d E =-.973119E-02  mag=    19.9996
       N       E                     dE             d eps       ncg     rms          ort
SDA:   1    -0.112825615607E+04    0.20023E+00    0.00000E+00  1320   0.806E+00 0.000E+00
CGA:   2    -0.112837138160E+04   -0.11523E+00   -0.11527E+00  1320   0.503E+00-0.825E-03
CGA:   3    -0.112840695174E+04   -0.35570E-01   -0.35574E-01  1320   0.300E+00 0.232E-04
CGA:   4    -0.112843862542E+04   -0.31674E-01   -0.31673E-01  1320   0.211E+00 0.146E-03
CGA:   5    -0.112845284387E+04   -0.14218E-01   -0.14218E-01  1320   0.487E-01 0.209E-04
CGA:   6    -0.112845766582E+04   -0.48220E-02   -0.48218E-02  1320   0.293E-01-0.369E-04
CGA:   7    -0.112846053278E+04   -0.28670E-02   -0.28671E-02  1320   0.100E-01 0.199E-04
CGA:   8    -0.112846126000E+04   -0.72722E-03   -0.72712E-03  1320   0.372E-02 0.295E-05
CGA:   9    -0.112846157921E+04   -0.31920E-03   -0.31924E-03  1320   0.296E-02 0.267E-05
CGA:  10    -0.112846184173E+04   -0.26253E-03   -0.26256E-03  1320   0.976E-03 0.332E-05
CGA:  11    -0.112846196633E+04   -0.12460E-03   -0.12454E-03  1320   0.806E-03 0.226E-05
CGA:  12    -0.112846206586E+04   -0.99527E-04   -0.99413E-04  1320   0.566E-03 0.485E-05
CGA:  13    -0.112846211116E+04   -0.45301E-04   -0.45310E-04  1320   0.398E-03 0.559E-06
CGA:  14    -0.112846215244E+04   -0.41287E-04   -0.41290E-04  1320   0.295E-03-0.741E-06
CGA:  15    -0.112846218754E+04   -0.35091E-04   -0.35115E-04  1320   0.192E-03-0.124E-05
CGA:  16    -0.112846221021E+04   -0.22676E-04   -0.22712E-04  1320   0.136E-03-0.195E-05
CGA:  17    -0.112846222266E+04   -0.12452E-04   -0.12439E-04  1320   0.951E-04-0.141E-05
CGA:  18    -0.112846223115E+04   -0.84829E-05   -0.84797E-05  1320   0.562E-04-0.320E-06
  18 F= -.11284622E+04 E0= -.11284416E+04  d E =-.583733E-02  mag=    19.9996
       N       E                     dE             d eps       ncg     rms          ort
SDA:   1    -0.112831519671E+04    0.14703E+00    0.00000E+00  1320   0.545E+00 0.000E+00
CGA:   2    -0.112840286589E+04   -0.87669E-01   -0.87669E-01  1320   0.427E+00 0.630E-06
CGA:   3    -0.112842718198E+04   -0.24316E-01   -0.24366E-01  1320   0.178E+00-0.316E-03
CGA:   4    -0.112844791893E+04   -0.20737E-01   -0.20727E-01  1320   0.120E+00 0.430E-03
CGA:   5    -0.112845617173E+04   -0.82528E-02   -0.82264E-02  1320   0.341E-01 0.282E-04
CGA:   6    -0.112846011665E+04   -0.39449E-02   -0.39445E-02  1320   0.213E-01 0.219E-04
CGA:   7    -0.112846205115E+04   -0.19345E-02   -0.19344E-02  1320   0.602E-02-0.366E-05
CGA:   8    -0.112846246274E+04   -0.41159E-03   -0.41187E-03  1320   0.283E-02 0.206E-05
CGA:   9    -0.112846271472E+04   -0.25198E-03   -0.25201E-03  1320   0.202E-02 0.324E-05
CGA:  10    -0.112846290738E+04   -0.19266E-03   -0.19266E-03  1320   0.674E-03 0.105E-05
CGA:  11    -0.112846300648E+04   -0.99092E-04   -0.98837E-04  1320   0.763E-03 0.523E-05
CGA:  12    -0.112846308931E+04   -0.82838E-04   -0.82812E-04  1320   0.482E-03 0.368E-05
CGA:  13    -0.112846312784E+04   -0.38529E-04   -0.38536E-04  1320   0.353E-03 0.461E-06
CGA:  14    -0.112846317020E+04   -0.42358E-04   -0.42391E-04  1320   0.311E-03-0.169E-05
CGA:  15    -0.112846320492E+04   -0.34723E-04   -0.34743E-04  1320   0.163E-03-0.179E-05
CGA:  16    -0.112846322272E+04   -0.17794E-04   -0.17804E-04  1320   0.117E-03-0.125E-05
CGA:  17    -0.112846323442E+04   -0.11703E-04   -0.11702E-04  1320   0.819E-04-0.465E-06
CGA:  18    -0.112846324110E+04   -0.66825E-05   -0.66753E-05  1320   0.431E-04-0.354E-06
  19 F= -.11284632E+04 E0= -.11284426E+04  d E =-.100995E-02  mag=    19.9996
       N       E                     dE             d eps       ncg     rms          ort
SDA:   1    -0.112657534620E+04    0.18879E+01    0.00000E+00  1320   0.679E+01 0.000E+00
CGA:   2    -0.112788314549E+04   -0.13078E+01   -0.13081E+01  1320   0.270E+01-0.251E-02
CGA:   3    -0.112811436492E+04   -0.23122E+00   -0.23093E+00  1320   0.254E+01-0.355E-02
CGA:   4    -0.112831270379E+04   -0.19834E+00   -0.19880E+00  1320   0.804E+00 0.368E-02
CGA:   5    -0.112838386416E+04   -0.71160E-01   -0.71240E-01  1320   0.414E+00 0.197E-02
CGA:   6    -0.112842962540E+04   -0.45761E-01   -0.45779E-01  1320   0.212E+00-0.124E-02
CGA:   7    -0.112844566350E+04   -0.16038E-01   -0.16093E-01  1320   0.467E-01 0.370E-03
CGA:   8    -0.112844972566E+04   -0.40622E-02   -0.40607E-02  1320   0.380E-01-0.243E-04
CGA:   9    -0.112845319199E+04   -0.34663E-02   -0.34652E-02  1320   0.181E-01-0.456E-04
CGA:  10    -0.112845462186E+04   -0.14299E-02   -0.14305E-02  1320   0.103E-01 0.171E-04
CGA:  11    -0.112845613749E+04   -0.15156E-02   -0.15144E-02  1320   0.910E-02 0.267E-04
CGA:  12    -0.112845722959E+04   -0.10921E-02   -0.10918E-02  1320   0.482E-02 0.164E-04
CGA:  13    -0.112845775871E+04   -0.52912E-03   -0.52913E-03  1320   0.659E-02-0.124E-05
CGA:  14    -0.112845841092E+04   -0.65221E-03   -0.65221E-03  1320   0.369E-02-0.500E-05
CGA:  15    -0.112845882630E+04   -0.41538E-03   -0.41551E-03  1320   0.190E-02-0.112E-04
CGA:  16    -0.112845906687E+04   -0.24057E-03   -0.24056E-03  1320   0.166E-02-0.268E-07
CGA:  17    -0.112845921760E+04   -0.15073E-03   -0.15072E-03  1320   0.103E-02-0.105E-05
CGA:  18    -0.112845930104E+04   -0.83446E-04   -0.83416E-04  1320   0.544E-03-0.114E-05
CGA:  19    -0.112845935994E+04   -0.58894E-04   -0.58898E-04  1320   0.448E-03-0.590E-06
CGA:  20    -0.112845941601E+04   -0.56078E-04   -0.56078E-04  1320   0.267E-03-0.252E-07
CGA:  21    -0.112845944092E+04   -0.24906E-04   -0.24911E-04  1320   0.183E-03 0.556E-06
CGA:  22    -0.112845946228E+04   -0.21358E-04   -0.21328E-04  1320   0.175E-03 0.225E-05
CGA:  23    -0.112845947723E+04   -0.14952E-04   -0.14980E-04  1320   0.963E-04 0.145E-05
CGA:  24    -0.112845948734E+04   -0.10110E-04   -0.10109E-04  1320   0.496E-04 0.487E-06
CGA:  25    -0.112845949420E+04   -0.68571E-05   -0.68501E-05  1320   0.422E-04 0.203E-06
  20 F= -.11284595E+04 E0= -.11284388E+04  d E =0.374690E-02  mag=    19.9997
       N       E                     dE             d eps       ncg     rms          ort
SDA:   1    -0.112337368526E+04    0.50858E+01    0.00000E+00  1320   0.179E+02 0.000E+00
CGA:   2    -0.112704752787E+04   -0.36738E+01   -0.36797E+01  1320   0.635E+01-0.462E-01
CGA:   3    -0.112771975319E+04   -0.67223E+00   -0.67291E+00  1320   0.403E+01 0.124E+00
CGA:   4    -0.112808314248E+04   -0.36339E+00   -0.36068E+00  1320   0.250E+01-0.303E-01
CGA:   5    -0.112825383809E+04   -0.17070E+00   -0.16870E+00  1320   0.993E+00 0.486E-02
CGA:   6    -0.112836714890E+04   -0.11331E+00   -0.11332E+00  1320   0.537E+00-0.720E-03
CGA:   7    -0.112840318575E+04   -0.36037E-01   -0.36070E-01  1320   0.122E+00-0.106E-03
CGA:   8    -0.112841641405E+04   -0.13228E-01   -0.13227E-01  1320   0.787E-01 0.172E-03
CGA:   9    -0.112842501519E+04   -0.86011E-02   -0.86017E-02  1320   0.460E-01-0.592E-04
CGA:  10    -0.112842860494E+04   -0.35897E-02   -0.35959E-02  1320   0.341E-01 0.620E-04
CGA:  11    -0.112843227762E+04   -0.36727E-02   -0.36720E-02  1320   0.252E-01 0.110E-03
CGA:  12    -0.112843522048E+04   -0.29429E-02   -0.29434E-02  1320   0.166E-01-0.109E-04
CGA:  13    -0.112843755285E+04   -0.23324E-02   -0.23314E-02  1320   0.126E-01 0.231E-04
CGA:  14    -0.112843922259E+04   -0.16697E-02   -0.16701E-02  1320   0.128E-01-0.139E-04
CGA:  15    -0.112844031360E+04   -0.10910E-02   -0.10910E-02  1320   0.839E-02-0.810E-05
CGA:  16    -0.112844101948E+04   -0.70588E-03   -0.70621E-03  1320   0.409E-02 0.257E-05
CGA:  17    -0.112844151487E+04   -0.49540E-03   -0.49544E-03  1320   0.270E-02-0.164E-05
CGA:  18    -0.112844180224E+04   -0.28737E-03   -0.28737E-03  1320   0.183E-02 0.379E-05
CGA:  19    -0.112844198796E+04   -0.18572E-03   -0.18574E-03  1320   0.108E-02 0.395E-05
CGA:  20    -0.112844210545E+04   -0.11749E-03   -0.11749E-03  1320   0.104E-02 0.704E-06
CGA:  21    -0.112844219040E+04   -0.84946E-04   -0.84931E-04  1320   0.567E-03-0.935E-06
CGA:  22    -0.112844226516E+04   -0.74763E-04   -0.74763E-04  1320   0.344E-03 0.686E-07
CGA:  23    -0.112844230679E+04   -0.41630E-04   -0.41641E-04  1320   0.262E-03-0.701E-06
CGA:  24    -0.112844233498E+04   -0.28192E-04   -0.28191E-04  1320   0.215E-03 0.706E-06
CGA:  25    -0.112844235217E+04   -0.17188E-04   -0.17204E-04  1320   0.116E-03 0.597E-06
CGA:  26    -0.112844236365E+04   -0.11477E-04   -0.11477E-04  1320   0.662E-04 0.149E-06
CGA:  27    -0.112844237350E+04   -0.98469E-05   -0.98594E-05  1320   0.589E-04-0.308E-06
  21 F= -.11284424E+04 E0= -.11284214E+04  d E =0.171207E-01  mag=    19.9998
       N       E                     dE             d eps       ncg     rms          ort
SDA:   1    -0.112446827734E+04    0.39741E+01    0.00000E+00  1320   0.138E+02 0.000E+00
CGA:   2    -0.112737158290E+04   -0.29033E+01   -0.29032E+01  1320   0.525E+01 0.839E-02
CGA:   3    -0.112777198324E+04   -0.40040E+00   -0.39365E+00  1320   0.435E+01-0.542E-03
CGA:   4    -0.112815658936E+04   -0.38461E+00   -0.38451E+00  1320   0.158E+01-0.712E-06
CGA:   5    -0.112830144020E+04   -0.14485E+00   -0.14507E+00  1320   0.834E+00 0.387E-02
CGA:   6    -0.112839562214E+04   -0.94182E-01   -0.94204E-01  1320   0.294E+00-0.251E-02
CGA:   7    -0.112842032536E+04   -0.24703E-01   -0.24709E-01  1320   0.980E-01 0.771E-04
CGA:   8    -0.112842773140E+04   -0.74060E-02   -0.74098E-02  1320   0.769E-01 0.164E-04
CGA:   9    -0.112843540550E+04   -0.76741E-02   -0.76739E-02  1320   0.296E-01-0.155E-04
CGA:  10    -0.112843886481E+04   -0.34593E-02   -0.34586E-02  1320   0.223E-01 0.446E-04
CGA:  11    -0.112844177739E+04   -0.29126E-02   -0.29134E-02  1320   0.204E-01-0.140E-04
CGA:  12    -0.112844374689E+04   -0.19695E-02   -0.19704E-02  1320   0.149E-01 0.469E-04
CGA:  13    -0.112844506394E+04   -0.13171E-02   -0.13173E-02  1320   0.109E-01 0.756E-05
CGA:  14    -0.112844653619E+04   -0.14723E-02   -0.14734E-02  1320   0.101E-01-0.295E-04
CGA:  15    -0.112844747882E+04   -0.94262E-03   -0.94297E-03  1320   0.525E-02 0.405E-05
CGA:  16    -0.112844804421E+04   -0.56539E-03   -0.56539E-03  1320   0.332E-02 0.261E-05
CGA:  17    -0.112844839445E+04   -0.35024E-03   -0.35024E-03  1320   0.294E-02 0.501E-07
CGA:  18    -0.112844863762E+04   -0.24317E-03   -0.24322E-03  1320   0.149E-02 0.177E-05
CGA:  19    -0.112844879489E+04   -0.15726E-03   -0.15726E-03  1320   0.939E-03 0.457E-06
CGA:  20    -0.112844892545E+04   -0.13056E-03   -0.13063E-03  1320   0.782E-03-0.200E-05
CGA:  21    -0.112844900152E+04   -0.76075E-04   -0.76064E-04  1320   0.569E-03-0.953E-06
CGA:  22    -0.112844904832E+04   -0.46793E-04   -0.46801E-04  1320   0.357E-03 0.355E-06
CGA:  23    -0.112844909196E+04   -0.43642E-04   -0.43629E-04  1320   0.225E-03 0.739E-06
CGA:  24    -0.112844912003E+04   -0.28076E-04   -0.28059E-04  1320   0.147E-03 0.989E-06
CGA:  25    -0.112844913266E+04   -0.12626E-04   -0.12631E-04  1320   0.111E-03 0.222E-06
CGA:  26    -0.112844914323E+04   -0.10565E-04   -0.10570E-04  1320   0.571E-04 0.361E-06
CGA:  27    -0.112844915005E+04   -0.68290E-05   -0.68233E-05  1320   0.472E-04 0.409E-06
  22 F= -.11284492E+04 E0= -.11284281E+04  d E =-.677656E-02  mag=    19.9998
       N       E                     dE             d eps       ncg     rms          ort
SDA:   1    -0.111415490746E+04    0.14294E+02    0.00000E+00  1320   0.523E+02 0.000E+00
CGA:   2    -0.112350275693E+04   -0.93478E+01   -0.93580E+01  1320   0.324E+02-0.895E-01
CGA:   3    -0.112545131330E+04   -0.19486E+01   -0.19933E+01  1320   0.169E+02-0.273E-01
CGA:   4    -0.112703635698E+04   -0.15850E+01   -0.15866E+01  1320   0.919E+01 0.543E-01
CGA:   5    -0.112779196264E+04   -0.75561E+00   -0.75659E+00  1320   0.297E+01 0.143E-01
CGA:   6    -0.112816250009E+04   -0.37054E+00   -0.36992E+00  1320   0.198E+01 0.215E-01
CGA:   7    -0.112832042761E+04   -0.15793E+00   -0.15704E+00  1320   0.506E+00-0.497E-02
CGA:   8    -0.112836319556E+04   -0.42768E-01   -0.42888E-01  1320   0.225E+00 0.172E-02
CGA:   9    -0.112839026997E+04   -0.27074E-01   -0.27092E-01  1320   0.148E+00-0.682E-03
CGA:  10    -0.112840276238E+04   -0.12492E-01   -0.12516E-01  1320   0.991E-01 0.363E-03
CGA:  11    -0.112841116649E+04   -0.84041E-02   -0.84165E-02  1320   0.741E-01 0.227E-03
CGA:  12    -0.112842020247E+04   -0.90360E-02   -0.90369E-02  1320   0.520E-01-0.943E-05
CGA:  13    -0.112842611778E+04   -0.59153E-02   -0.59129E-02  1320   0.309E-01 0.157E-03
CGA:  14    -0.112843098460E+04   -0.48668E-02   -0.48652E-02  1320   0.252E-01 0.234E-04
CGA:  15    -0.112843462690E+04   -0.36423E-02   -0.36410E-02  1320   0.138E-01 0.251E-04
CGA:  16    -0.112843605513E+04   -0.14282E-02   -0.14282E-02  1320   0.104E-01-0.176E-05
CGA:  17    -0.112843711202E+04   -0.10569E-02   -0.10571E-02  1320   0.591E-02 0.219E-04
CGA:  18    -0.112843765553E+04   -0.54350E-03   -0.54358E-03  1320   0.411E-02 0.658E-05
CGA:  19    -0.112843799236E+04   -0.33683E-03   -0.33675E-03  1320   0.251E-02-0.634E-06
CGA:  20    -0.112843828582E+04   -0.29347E-03   -0.29352E-03  1320   0.177E-02-0.475E-05
CGA:  21    -0.112843849404E+04   -0.20822E-03   -0.20826E-03  1320   0.928E-03-0.395E-05
CGA:  22    -0.112843863073E+04   -0.13670E-03   -0.13682E-03  1320   0.703E-03-0.294E-05
CGA:  23    -0.112843871735E+04   -0.86616E-04   -0.86586E-04  1320   0.480E-03 0.183E-05
CGA:  24    -0.112843876472E+04   -0.47373E-04   -0.47389E-04  1320   0.352E-03 0.136E-05
CGA:  25    -0.112843879381E+04   -0.29090E-04   -0.29099E-04  1320   0.216E-03 0.397E-06
CGA:  26    -0.112843881526E+04   -0.21444E-04   -0.21444E-04  1320   0.127E-03 0.770E-07
CGA:  27    -0.112843883016E+04   -0.14907E-04   -0.14913E-04  1320   0.927E-04-0.666E-06
CGA:  28    -0.112843883936E+04   -0.91987E-05   -0.91938E-05  1320   0.544E-04-0.597E-06
  23 F= -.11284388E+04 E0= -.11284177E+04  d E =0.103107E-01  mag=    19.9998
       N       E                     dE             d eps       ncg     rms          ort
SDA:   1    -0.112734604034E+04    0.10928E+01    0.00000E+00  1320   0.457E+01 0.000E+00
CGA:   2    -0.112800851745E+04   -0.66248E+00   -0.66230E+00  1320   0.187E+01 0.413E-02
CGA:   3    -0.112819528433E+04   -0.18677E+00   -0.18622E+00  1320   0.200E+01-0.167E-01
CGA:   4    -0.112838797981E+04   -0.19270E+00   -0.19299E+00  1320   0.758E+00 0.818E-02
CGA:   5    -0.112843579678E+04   -0.47817E-01   -0.48054E-01  1320   0.277E+00-0.110E-02
CGA:   6    -0.112845921473E+04   -0.23418E-01   -0.23400E-01  1320   0.127E+00-0.155E-03
CGA:   7    -0.112847178238E+04   -0.12568E-01   -0.12570E-01  1320   0.378E-01 0.134E-03
CGA:   8    -0.112847551321E+04   -0.37308E-02   -0.37307E-02  1320   0.158E-01 0.191E-05
CGA:   9    -0.112847720088E+04   -0.16877E-02   -0.16877E-02  1320   0.109E-01 0.214E-04
CGA:  10    -0.112847798111E+04   -0.78023E-03   -0.77955E-03  1320   0.589E-02 0.408E-05
CGA:  11    -0.112847856467E+04   -0.58355E-03   -0.58356E-03  1320   0.330E-02 0.350E-05
CGA:  12    -0.112847898115E+04   -0.41648E-03   -0.41638E-03  1320   0.214E-02 0.395E-05
CGA:  13    -0.112847921180E+04   -0.23065E-03   -0.23065E-03  1320   0.121E-02 0.614E-06
CGA:  14    -0.112847936601E+04   -0.15422E-03   -0.15419E-03  1320   0.129E-02 0.100E-05
CGA:  15    -0.112847947567E+04   -0.10966E-03   -0.10967E-03  1320   0.766E-03 0.205E-06
CGA:  16    -0.112847955211E+04   -0.76438E-04   -0.76428E-04  1320   0.538E-03-0.169E-05
CGA:  17    -0.112847960382E+04   -0.51711E-04   -0.51705E-04  1320   0.335E-03-0.688E-06
CGA:  18    -0.112847964159E+04   -0.37767E-04   -0.37770E-04  1320   0.181E-03-0.430E-06
CGA:  19    -0.112847966217E+04   -0.20581E-04   -0.20590E-04  1320   0.126E-03-0.110E-05
CGA:  20    -0.112847967572E+04   -0.13546E-04   -0.13547E-04  1320   0.115E-03-0.463E-06
CGA:  21    -0.112847968509E+04   -0.93713E-05   -0.93656E-05  1320   0.687E-04-0.217E-06
  24 F= -.11284797E+04 E0= -.11284584E+04  d E =-.408457E-01  mag=    19.9998
       N       E                     dE             d eps       ncg     rms          ort
SDA:   1    -0.112798440124E+04    0.49527E+00    0.00000E+00  1320   0.178E+01 0.000E+00
CGA:   2    -0.112833451704E+04   -0.35012E+00   -0.35040E+00  1320   0.986E+00-0.289E-02
CGA:   3    -0.112839516274E+04   -0.60646E-01   -0.61378E-01  1320   0.511E+00-0.350E-02
CGA:   4    -0.112844382409E+04   -0.48661E-01   -0.48690E-01  1320   0.292E+00 0.100E-02
CGA:   5    -0.112846768463E+04   -0.23861E-01   -0.23820E-01  1320   0.107E+00-0.313E-03
CGA:   6    -0.112848073531E+04   -0.13051E-01   -0.13049E-01  1320   0.560E-01 0.761E-04
CGA:   7    -0.112848543360E+04   -0.46983E-02   -0.46991E-02  1320   0.159E-01-0.212E-05
CGA:   8    -0.112848659747E+04   -0.11639E-02   -0.11628E-02  1320   0.966E-02-0.108E-04
CGA:   9    -0.112848754019E+04   -0.94272E-03   -0.94264E-03  1320   0.569E-02-0.813E-05
CGA:  10    -0.112848807415E+04   -0.53396E-03   -0.53406E-03  1320   0.344E-02 0.590E-05
CGA:  11    -0.112848843468E+04   -0.36053E-03   -0.36052E-03  1320   0.261E-02 0.656E-05
CGA:  12    -0.112848880269E+04   -0.36801E-03   -0.36767E-03  1320   0.186E-02 0.917E-05
CGA:  13    -0.112848901510E+04   -0.21241E-03   -0.21239E-03  1320   0.171E-02 0.261E-05
CGA:  14    -0.112848916812E+04   -0.15302E-03   -0.15302E-03  1320   0.131E-02-0.455E-06
CGA:  15    -0.112848930856E+04   -0.14044E-03   -0.14045E-03  1320   0.881E-03-0.201E-05
CGA:  16    -0.112848940229E+04   -0.93728E-04   -0.93731E-04  1320   0.399E-03-0.103E-05
CGA:  17    -0.112848945454E+04   -0.52252E-04   -0.52221E-04  1320   0.293E-03 0.118E-05
CGA:  18    -0.112848947737E+04   -0.22825E-04   -0.22841E-04  1320   0.206E-03 0.629E-06
CGA:  19    -0.112848949886E+04   -0.21490E-04   -0.21490E-04  1320   0.106E-03 0.113E-05
CGA:  20    -0.112848951083E+04   -0.11974E-04   -0.11968E-04  1320   0.705E-04 0.808E-06
CGA:  21    -0.112848951962E+04   -0.87913E-05   -0.87954E-05  1320   0.578E-04-0.220E-06
  25 F= -.11284895E+04 E0= -.11284682E+04  d E =-.983453E-02  mag=    19.9998
       N       E                     dE             d eps       ncg     rms          ort
SDA:   1    -0.112340081008E+04    0.50887E+01    0.00000E+00  1320   0.176E+02 0.000E+00
CGA:   2    -0.112715915644E+04   -0.37583E+01   -0.37618E+01  1320   0.560E+01-0.188E-01
CGA:   3    -0.112778863933E+04   -0.62948E+00   -0.62930E+00  1320   0.530E+01 0.580E-01
CGA:   4    -0.112814450212E+04   -0.35586E+00   -0.35389E+00  1320   0.206E+01 0.203E-01
CGA:   5    -0.112834017180E+04   -0.19567E+00   -0.19528E+00  1320   0.967E+00-0.902E-02
CGA:   6    -0.112845609213E+04   -0.11592E+00   -0.11590E+00  1320   0.268E+00 0.120E-02
CGA:   7    -0.112847839380E+04   -0.22302E-01   -0.22313E-01  1320   0.117E+00 0.602E-04
CGA:   8    -0.112848951148E+04   -0.11118E-01   -0.11116E-01  1320   0.891E-01-0.587E-04
CGA:   9    -0.112849613452E+04   -0.66230E-02   -0.66319E-02  1320   0.417E-01 0.254E-04
CGA:  10    -0.112850069734E+04   -0.45628E-02   -0.45623E-02  1320   0.266E-01 0.761E-04
CGA:  11    -0.112850440196E+04   -0.37046E-02   -0.37042E-02  1320   0.219E-01 0.225E-04
CGA:  12    -0.112850682478E+04   -0.24228E-02   -0.24227E-02  1320   0.161E-01 0.269E-04
CGA:  13    -0.112850848584E+04   -0.16611E-02   -0.16610E-02  1320   0.147E-01-0.832E-05
CGA:  14    -0.112850999895E+04   -0.15131E-02   -0.15132E-02  1320   0.118E-01 0.632E-05
CGA:  15    -0.112851113829E+04   -0.11393E-02   -0.11392E-02  1320   0.657E-02-0.824E-05
CGA:  16    -0.112851178740E+04   -0.64911E-03   -0.64904E-03  1320   0.440E-02-0.330E-05
CGA:  17    -0.112851230820E+04   -0.52079E-03   -0.52070E-03  1320   0.245E-02 0.722E-05
CGA:  18    -0.112851259037E+04   -0.28218E-03   -0.28212E-03  1320   0.213E-02 0.689E-05
CGA:  19    -0.112851275378E+04   -0.16340E-03   -0.16349E-03  1320   0.131E-02 0.429E-05
CGA:  20    -0.112851290930E+04   -0.15553E-03   -0.15550E-03  1320   0.799E-03 0.197E-05
CGA:  21    -0.112851301993E+04   -0.11063E-03   -0.11069E-03  1320   0.598E-03-0.182E-05
CGA:  22    -0.112851308413E+04   -0.64193E-04   -0.64193E-04  1320   0.481E-03-0.186E-05
CGA:  23    -0.112851312289E+04   -0.38766E-04   -0.38734E-04  1320   0.310E-03-0.104E-05
CGA:  24    -0.112851315937E+04   -0.36477E-04   -0.36489E-04  1320   0.188E-03-0.101E-05
CGA:  25    -0.112851317918E+04   -0.19812E-04   -0.19811E-04  1320   0.120E-03-0.300E-06
CGA:  26    -0.112851319057E+04   -0.11389E-04   -0.11384E-04  1320   0.781E-04-0.394E-06
CGA:  27    -0.112851319994E+04   -0.93718E-05   -0.93795E-05  1320   0.659E-04-0.546E-06
  26 F= -.11285132E+04 E0= -.11284916E+04  d E =-.236803E-01  mag=    19.9998
       N       E                     dE             d eps       ncg     rms          ort
SDA:   1    -0.110053743616E+04    0.27976E+02    0.00000E+00  1320   0.108E+03 0.000E+00
CGA:   2    -0.111438066560E+04   -0.13843E+02   -0.13892E+02  1320   0.806E+02-0.113E+01
CGA:   3    -0.111991730637E+04   -0.55366E+01   -0.53383E+01  1320   0.389E+02 0.897E+00
CGA:   4    -0.112459795973E+04   -0.46807E+01   -0.47065E+01  1320   0.347E+02-0.116E+01
CGA:   5    -0.112675542882E+04   -0.21575E+01   -0.20546E+01  1320   0.752E+01 0.197E+00
CGA:   6    -0.112742597074E+04   -0.67054E+00   -0.67058E+00  1320   0.306E+01 0.113E-02
CGA:   7    -0.112775787828E+04   -0.33191E+00   -0.33172E+00  1320   0.149E+01 0.190E-01
CGA:   8    -0.112787754656E+04   -0.11967E+00   -0.11987E+00  1320   0.553E+00 0.267E-02
CGA:   9    -0.112792194424E+04   -0.44398E-01   -0.44762E-01  1320   0.353E+00 0.449E-02
CGA:  10    -0.112794983035E+04   -0.27886E-01   -0.28041E-01  1320   0.210E+00 0.176E-02
CGA:  11    -0.112796852564E+04   -0.18695E-01   -0.18691E-01  1320   0.916E-01-0.840E-04
CGA:  12    -0.112797919967E+04   -0.10674E-01   -0.10663E-01  1320   0.650E-01 0.415E-03
CGA:  13    -0.112798726010E+04   -0.80604E-02   -0.80512E-02  1320   0.399E-01 0.271E-03
CGA:  14    -0.112799138329E+04   -0.41232E-02   -0.41226E-02  1320   0.239E-01 0.149E-03
CGA:  15    -0.112799479576E+04   -0.34125E-02   -0.34082E-02  1320   0.209E-01 0.766E-04
CGA:  16    -0.112799713127E+04   -0.23355E-02   -0.23349E-02  1320   0.117E-01 0.404E-04
CGA:  17    -0.112799849847E+04   -0.13672E-02   -0.13669E-02  1320   0.667E-02 0.177E-04
CGA:  18    -0.112799940761E+04   -0.90915E-03   -0.90881E-03  1320   0.472E-02 0.969E-05
CGA:  19    -0.112799986646E+04   -0.45885E-03   -0.45885E-03  1320   0.304E-02-0.244E-05
CGA:  20    -0.112800015027E+04   -0.28381E-03   -0.28381E-03  1320   0.229E-02-0.281E-05
CGA:  21    -0.112800039955E+04   -0.24928E-03   -0.24929E-03  1320   0.184E-02-0.299E-05
CGA:  22    -0.112800056040E+04   -0.16086E-03   -0.16083E-03  1320   0.105E-02-0.926E-06
CGA:  23    -0.112800070430E+04   -0.14390E-03   -0.14387E-03  1320   0.659E-03 0.494E-06
CGA:  24    -0.112800079900E+04   -0.94695E-04   -0.94791E-04  1320   0.430E-03-0.259E-05
CGA:  25    -0.112800084922E+04   -0.50220E-04   -0.50258E-04  1320   0.330E-03-0.391E-05
CGA:  26    -0.112800088191E+04   -0.32689E-04   -0.32673E-04  1320   0.203E-03-0.191E-05
CGA:  27    -0.112800090580E+04   -0.23892E-04   -0.23888E-04  1320   0.162E-03 0.398E-06
CGA:  28    -0.112800091926E+04   -0.13464E-04   -0.13474E-04  1320   0.123E-03 0.330E-06
CGA:  29    -0.112800093341E+04   -0.14145E-04   -0.14141E-04  1320   0.848E-04 0.492E-06
CGA:  30    -0.112800094361E+04   -0.10201E-04   -0.10197E-04  1320   0.599E-04 0.283E-06
CGA:  31    -0.112800095202E+04   -0.84137E-05   -0.84136E-05  1320   0.500E-04-0.442E-07
  27 F= -.11280010E+04 E0= -.11279794E+04  d E =0.512248E+00  mag=    19.9999
       N       E                     dE             d eps       ncg     rms          ort
SDA:   1    -0.112495027412E+04    0.30507E+01    0.00000E+00  1320   0.143E+02 0.000E+00
CGA:   2    -0.112690215309E+04   -0.19519E+01   -0.19520E+01  1320   0.554E+01-0.413E-03
CGA:   3    -0.112755653337E+04   -0.65438E+00   -0.65305E+00  1320   0.504E+01 0.107E+00
CGA:   4    -0.112812964454E+04   -0.57311E+00   -0.57318E+00  1320   0.234E+01-0.864E-01
CGA:   5    -0.112827257402E+04   -0.14293E+00   -0.14175E+00  1320   0.676E+00 0.870E-02
CGA:   6    -0.112832356322E+04   -0.50989E-01   -0.50965E-01  1320   0.301E+00 0.245E-04
CGA:   7    -0.112835274821E+04   -0.29185E-01   -0.29199E-01  1320   0.136E+00 0.609E-03
CGA:   8    -0.112836370226E+04   -0.10954E-01   -0.10925E-01  1320   0.475E-01-0.172E-03
CGA:   9    -0.112836898549E+04   -0.52832E-02   -0.52826E-02  1320   0.269E-01 0.557E-04
CGA:  10    -0.112837193648E+04   -0.29510E-02   -0.29511E-02  1320   0.114E-01-0.880E-05
CGA:  11    -0.112837327739E+04   -0.13409E-02   -0.13407E-02  1320   0.853E-02 0.166E-04
CGA:  12    -0.112837418620E+04   -0.90881E-03   -0.90881E-03  1320   0.599E-02-0.643E-05
CGA:  13    -0.112837460839E+04   -0.42219E-03   -0.42217E-03  1320   0.316E-02 0.595E-06
CGA:  14    -0.112837499398E+04   -0.38559E-03   -0.38544E-03  1320   0.212E-02 0.720E-05
CGA:  15    -0.112837528426E+04   -0.29028E-03   -0.29024E-03  1320   0.160E-02 0.185E-05
CGA:  16    -0.112837544827E+04   -0.16400E-03   -0.16401E-03  1320   0.101E-02 0.260E-05
CGA:  17    -0.112837555451E+04   -0.10625E-03   -0.10625E-03  1320   0.594E-03 0.207E-05
CGA:  18    -0.112837562939E+04   -0.74876E-04   -0.74870E-04  1320   0.435E-03 0.317E-06
CGA:  19    -0.112837566676E+04   -0.37373E-04   -0.37363E-04  1320   0.272E-03-0.432E-06
CGA:  20    -0.112837569149E+04   -0.24729E-04   -0.24721E-04  1320   0.216E-03-0.484E-06
CGA:  21    -0.112837571605E+04   -0.24561E-04   -0.24567E-04  1320   0.131E-03-0.827E-06
CGA:  22    -0.112837573275E+04   -0.16697E-04   -0.16688E-04  1320   0.908E-04 0.432E-06
CGA:  23    -0.112837574547E+04   -0.12722E-04   -0.12705E-04  1320   0.669E-04 0.504E-06
CGA:  24    -0.112837575289E+04   -0.74152E-05   -0.74154E-05  1320   0.423E-04 0.338E-06
  28 F= -.11283758E+04 E0= -.11283541E+04  d E =-.374801E+00  mag=    19.9999
       N       E                     dE             d eps       ncg     rms          ort
SDA:   1    -0.112783794565E+04    0.53780E+00    0.00000E+00  1320   0.260E+01 0.000E+00
CGA:   2    -0.112818755421E+04   -0.34961E+00   -0.34960E+00  1320   0.122E+01 0.293E-03
CGA:   3    -0.112828921380E+04   -0.10166E+00   -0.10157E+00  1320   0.987E+00-0.683E-03
CGA:   4    -0.112840449731E+04   -0.11528E+00   -0.11524E+00  1320   0.615E+00 0.340E-02
CGA:   5    -0.112844187320E+04   -0.37376E-01   -0.37270E-01  1320   0.142E+00 0.626E-03
CGA:   6    -0.112845352781E+04   -0.11655E-01   -0.11654E-01  1320   0.602E-01 0.494E-05
CGA:   7    -0.112845961591E+04   -0.60881E-02   -0.60890E-02  1320   0.262E-01 0.805E-04
CGA:   8    -0.112846180340E+04   -0.21875E-02   -0.21871E-02  1320   0.950E-02-0.762E-05
CGA:   9    -0.112846286072E+04   -0.10573E-02   -0.10574E-02  1320   0.617E-02-0.578E-05
CGA:  10    -0.112846332130E+04   -0.46058E-03   -0.46063E-03  1320   0.339E-02-0.296E-05
CGA:  11    -0.112846361545E+04   -0.29416E-03   -0.29419E-03  1320   0.163E-02 0.101E-06
CGA:  12    -0.112846383601E+04   -0.22056E-03   -0.22052E-03  1320   0.105E-02 0.116E-05
CGA:  13    -0.112846394402E+04   -0.10801E-03   -0.10801E-03  1320   0.599E-03-0.802E-07
CGA:  14    -0.112846400994E+04   -0.65920E-04   -0.65910E-04  1320   0.497E-03 0.159E-05
CGA:  15    -0.112846405749E+04   -0.47553E-04   -0.47575E-04  1320   0.396E-03 0.244E-05
CGA:  16    -0.112846409515E+04   -0.37654E-04   -0.37673E-04  1320   0.219E-03 0.205E-05
CGA:  17    -0.112846411903E+04   -0.23877E-04   -0.23869E-04  1320   0.165E-03 0.188E-05
CGA:  18    -0.112846413554E+04   -0.16512E-04   -0.16519E-04  1320   0.966E-04 0.141E-05
CGA:  19    -0.112846414783E+04   -0.12297E-04   -0.12291E-04  1320   0.544E-04 0.294E-06
CGA:  20    -0.112846415375E+04   -0.59199E-05   -0.59212E-05  1320   0.612E-04-0.273E-06
  29 F= -.11284642E+04 E0= -.11284425E+04  d E =-.884009E-01  mag=    19.9999
       N       E                     dE             d eps       ncg     rms          ort
SDA:   1    -0.112669856575E+04    0.17656E+01    0.00000E+00  1320   0.778E+01 0.000E+00
CGA:   2    -0.112767906747E+04   -0.98050E+00   -0.98188E+00  1320   0.418E+01-0.361E-01
CGA:   3    -0.112801390948E+04   -0.33484E+00   -0.33715E+00  1320   0.244E+01 0.119E-01
CGA:   4    -0.112833130609E+04   -0.31740E+00   -0.31750E+00  1320   0.236E+01-0.364E-02
CGA:   5    -0.112845939659E+04   -0.12809E+00   -0.12809E+00  1320   0.356E+00 0.429E-03
CGA:   6    -0.112849414382E+04   -0.34747E-01   -0.34746E-01  1320   0.188E+00-0.422E-04
CGA:   7    -0.112851080584E+04   -0.16662E-01   -0.16674E-01  1320   0.768E-01 0.339E-03
CGA:   8    -0.112851733900E+04   -0.65332E-02   -0.65284E-02  1320   0.264E-01-0.801E-04
CGA:   9    -0.112852056836E+04   -0.32294E-02   -0.32287E-02  1320   0.169E-01 0.180E-04
CGA:  10    -0.112852188102E+04   -0.13127E-02   -0.13119E-02  1320   0.891E-02-0.729E-05
CGA:  11    -0.112852262504E+04   -0.74403E-03   -0.74410E-03  1320   0.587E-02 0.218E-05
CGA:  12    -0.112852324128E+04   -0.61624E-03   -0.61619E-03  1320   0.331E-02 0.729E-05
CGA:  13    -0.112852361091E+04   -0.36963E-03   -0.36966E-03  1320   0.155E-02-0.132E-05
CGA:  14    -0.112852383044E+04   -0.21953E-03   -0.21938E-03  1320   0.138E-02 0.378E-05
CGA:  15    -0.112852397727E+04   -0.14683E-03   -0.14682E-03  1320   0.119E-02 0.310E-05
CGA:  16    -0.112852407452E+04   -0.97249E-04   -0.97305E-04  1320   0.656E-03 0.304E-05
CGA:  17    -0.112852414220E+04   -0.67678E-04   -0.67674E-04  1320   0.515E-03 0.321E-05
CGA:  18    -0.112852419161E+04   -0.49407E-04   -0.49423E-04  1320   0.293E-03 0.252E-05
[...]
CGA:  18    -0.112890400228E+04   -0.13624E-03   -0.13625E-03  1320   0.678E-03-0.269E-06
CGA:  19    -0.112890406565E+04   -0.63377E-04   -0.63371E-04  1320   0.488E-03-0.163E-05
CGA:  20    -0.112890410462E+04   -0.38964E-04   -0.38930E-04  1320   0.342E-03-0.196E-05
CGA:  21    -0.112890413336E+04   -0.28746E-04   -0.28729E-04  1320   0.248E-03-0.141E-05
CGA:  22    -0.112890415936E+04   -0.25996E-04   -0.26003E-04  1320   0.119E-03-0.763E-06
CGA:  23    -0.112890417558E+04   -0.16225E-04   -0.16225E-04  1320   0.110E-03-0.222E-07
CGA:  24    -0.112890418543E+04   -0.98420E-05   -0.98445E-05  1320   0.748E-04 0.215E-06
  95 F= -.11289042E+04 E0= -.11288813E+04  d E =0.104670E-01  mag=    20.0000
       N       E                     dE             d eps       ncg     rms          ort
SDA:   1    -0.112806579453E+04    0.83838E+00    0.00000E+00  1320   0.328E+01 0.000E+00
CGA:   2    -0.112848469632E+04   -0.41890E+00   -0.41924E+00  1320   0.305E+01-0.809E-02
CGA:   3    -0.112864196126E+04   -0.15726E+00   -0.15692E+00  1320   0.122E+01 0.157E-02
CGA:   4    -0.112880562827E+04   -0.16367E+00   -0.16368E+00  1320   0.102E+01-0.205E-03
CGA:   5    -0.112887625846E+04   -0.70630E-01   -0.70588E-01  1320   0.207E+00-0.330E-03
CGA:   6    -0.112889505131E+04   -0.18793E-01   -0.18800E-01  1320   0.124E+00 0.512E-03
CGA:   7    -0.112890549501E+04   -0.10444E-01   -0.10440E-01  1320   0.569E-01-0.113E-03
CGA:   8    -0.112890895220E+04   -0.34572E-02   -0.34557E-02  1320   0.232E-01-0.344E-05
CGA:   9    -0.112891079831E+04   -0.18461E-02   -0.18450E-02  1320   0.127E-01-0.321E-04
CGA:  10    -0.112891190754E+04   -0.11092E-02   -0.11094E-02  1320   0.489E-02 0.473E-05
CGA:  11    -0.112891251567E+04   -0.60813E-03   -0.60837E-03  1320   0.342E-02-0.652E-05
CGA:  12    -0.112891280747E+04   -0.29179E-03   -0.29186E-03  1320   0.309E-02 0.475E-05
CGA:  13    -0.112891303710E+04   -0.22963E-03   -0.22968E-03  1320   0.136E-02 0.370E-05
CGA:  14    -0.112891319163E+04   -0.15453E-03   -0.15448E-03  1320   0.997E-03 0.284E-05
CGA:  15    -0.112891329769E+04   -0.10606E-03   -0.10598E-03  1320   0.672E-03 0.642E-05
CGA:  16    -0.112891336816E+04   -0.70468E-04   -0.70418E-04  1320   0.570E-03 0.529E-05
CGA:  17    -0.112891341042E+04   -0.42259E-04   -0.42305E-04  1320   0.372E-03 0.214E-05
CGA:  18    -0.112891344655E+04   -0.36132E-04   -0.36128E-04  1320   0.218E-03 0.165E-05
CGA:  19    -0.112891346774E+04   -0.21190E-04   -0.21185E-04  1320   0.124E-03 0.187E-05
CGA:  20    -0.112891348121E+04   -0.13471E-04   -0.13459E-04  1320   0.103E-03 0.920E-06
CGA:  21    -0.112891349004E+04   -0.88276E-05   -0.88260E-05  1320   0.719E-04-0.166E-06
  96 F= -.11289135E+04 E0= -.11288907E+04  d E =-.930461E-02  mag=    20.0000
       N       E                     dE             d eps       ncg     rms          ort
SDA:   1    -0.112858314679E+04    0.33033E+00    0.00000E+00  1320   0.119E+01 0.000E+00
CGA:   2    -0.112874452399E+04   -0.16138E+00   -0.16136E+00  1320   0.116E+01 0.411E-03
CGA:   3    -0.112882086208E+04   -0.76338E-01   -0.76072E-01  1320   0.508E+00-0.403E-03
CGA:   4    -0.112886959058E+04   -0.48728E-01   -0.48726E-01  1320   0.426E+00 0.858E-03
CGA:   5    -0.112889766689E+04   -0.28076E-01   -0.28042E-01  1320   0.127E+00-0.751E-04
CGA:   6    -0.112890739131E+04   -0.97244E-02   -0.97233E-02  1320   0.430E-01-0.713E-05
CGA:   7    -0.112891252597E+04   -0.51347E-02   -0.51333E-02  1320   0.246E-01 0.421E-04
CGA:   8    -0.112891410955E+04   -0.15836E-02   -0.15845E-02  1320   0.108E-01 0.486E-05
CGA:   9    -0.112891477951E+04   -0.66996E-03   -0.66976E-03  1320   0.416E-02-0.165E-06
CGA:  10    -0.112891527780E+04   -0.49829E-03   -0.49819E-03  1320   0.238E-02 0.336E-05
CGA:  11    -0.112891552094E+04   -0.24315E-03   -0.24315E-03  1320   0.141E-02-0.332E-06
CGA:  12    -0.112891563695E+04   -0.11601E-03   -0.11602E-03  1320   0.130E-02 0.981E-06
CGA:  13    -0.112891575271E+04   -0.11576E-03   -0.11576E-03  1320   0.643E-03 0.150E-05
CGA:  14    -0.112891581741E+04   -0.64705E-04   -0.64705E-04  1320   0.529E-03 0.194E-07
CGA:  15    -0.112891587171E+04   -0.54298E-04   -0.54313E-04  1320   0.327E-03-0.154E-05
CGA:  16    -0.112891590864E+04   -0.36927E-04   -0.36927E-04  1320   0.315E-03-0.767E-07
CGA:  17    -0.112891593170E+04   -0.23064E-04   -0.23069E-04  1320   0.195E-03 0.257E-06
CGA:  18    -0.112891595081E+04   -0.19109E-04   -0.19108E-04  1320   0.113E-03 0.240E-06
CGA:  19    -0.112891596071E+04   -0.98985E-05   -0.98986E-05  1320   0.570E-04 0.331E-07
  97 F= -.11289160E+04 E0= -.11288932E+04  d E =-.247067E-02  mag=    20.0000
       N       E                     dE             d eps       ncg     rms          ort
SDA:   1    -0.112883756096E+04    0.78390E-01    0.00000E+00  1320   0.273E+00 0.000E+00
CGA:   2    -0.112886412155E+04   -0.26561E-01   -0.26556E-01  1320   0.393E+00 0.865E-03
CGA:   3    -0.112889287975E+04   -0.28758E-01   -0.28729E-01  1320   0.106E+00-0.271E-03
CGA:   4    -0.112890589961E+04   -0.13020E-01   -0.13023E-01  1320   0.806E-01-0.647E-04
CGA:   5    -0.112891174625E+04   -0.58466E-02   -0.58465E-02  1320   0.204E-01 0.101E-04
CGA:   6    -0.112891337663E+04   -0.16304E-02   -0.16308E-02  1320   0.106E-01 0.163E-04
CGA:   7    -0.112891437610E+04   -0.99947E-03   -0.99948E-03  1320   0.671E-02-0.187E-05
CGA:   8    -0.112891472648E+04   -0.35038E-03   -0.35089E-03  1320   0.186E-02 0.359E-06
CGA:   9    -0.112891491409E+04   -0.18760E-03   -0.18759E-03  1320   0.863E-03 0.214E-05
CGA:  10    -0.112891500647E+04   -0.92388E-04   -0.92413E-04  1320   0.551E-03-0.161E-05
CGA:  11    -0.112891506004E+04   -0.53565E-04   -0.53564E-04  1320   0.369E-03 0.170E-08
CGA:  12    -0.112891508571E+04   -0.25671E-04   -0.25674E-04  1320   0.244E-03 0.886E-07
CGA:  13    -0.112891511071E+04   -0.24999E-04   -0.25008E-04  1320   0.169E-03-0.793E-06
CGA:  14    -0.112891512784E+04   -0.17127E-04   -0.17133E-04  1320   0.102E-03-0.635E-06
CGA:  15    -0.112891513873E+04   -0.10898E-04   -0.10902E-04  1320   0.791E-04-0.224E-06
CGA:  16    -0.112891514756E+04   -0.88314E-05   -0.88320E-05  1320   0.875E-04-0.229E-07
  98 F= -.11289151E+04 E0= -.11288924E+04  d E =0.813145E-03  mag=    20.0000
       N       E                     dE             d eps       ncg     rms          ort
SDA:   1    -0.112875053565E+04    0.16460E+00    0.00000E+00  1320   0.528E+00 0.000E+00
CGA:   2    -0.112883363548E+04   -0.83100E-01   -0.83255E-01  1320   0.639E+00-0.213E-02
CGA:   3    -0.112886834181E+04   -0.34706E-01   -0.34979E-01  1320   0.255E+00-0.178E-02
CGA:   4    -0.112889267358E+04   -0.24332E-01   -0.24331E-01  1320   0.169E+00 0.110E-03
CGA:   5    -0.112890540861E+04   -0.12735E-01   -0.12731E-01  1320   0.501E-01-0.573E-04
CGA:   6    -0.112890947752E+04   -0.40689E-02   -0.40696E-02  1320   0.220E-01 0.300E-04
CGA:   7    -0.112891193190E+04   -0.24544E-02   -0.24537E-02  1320   0.101E-01 0.296E-04
CGA:   8    -0.112891262010E+04   -0.68820E-03   -0.68803E-03  1320   0.478E-02 0.216E-05
CGA:   9    -0.112891291704E+04   -0.29694E-03   -0.29698E-03  1320   0.208E-02 0.916E-06
CGA:  10    -0.112891314781E+04   -0.23077E-03   -0.23079E-03  1320   0.125E-02-0.115E-05
CGA:  11    -0.112891326996E+04   -0.12215E-03   -0.12217E-03  1320   0.618E-03-0.229E-05
CGA:  12    -0.112891334814E+04   -0.78181E-04   -0.78167E-04  1320   0.587E-03 0.438E-06
CGA:  13    -0.112891339100E+04   -0.42855E-04   -0.42851E-04  1320   0.381E-03-0.319E-06
CGA:  14    -0.112891342443E+04   -0.33426E-04   -0.33423E-04  1320   0.251E-03-0.589E-06
CGA:  15    -0.112891345137E+04   -0.26941E-04   -0.26924E-04  1320   0.187E-03 0.111E-05
CGA:  16    -0.112891347142E+04   -0.20048E-04   -0.20037E-04  1320   0.132E-03 0.836E-06
CGA:  17    -0.112891348661E+04   -0.15195E-04   -0.15191E-04  1320   0.927E-04 0.182E-06
CGA:  18    -0.112891349346E+04   -0.68526E-05   -0.68584E-05  1320   0.669E-04 0.298E-06
  99 F= -.11289135E+04 E0= -.11288908E+04  d E =0.165410E-02  mag=    20.0000
       N       E                     dE             d eps       ncg     rms          ort
SDA:   1    -0.112119112815E+04    0.77224E+01    0.00000E+00  1320   0.238E+02 0.000E+00
CGA:   2    -0.112578234501E+04   -0.45912E+01   -0.45989E+01  1320   0.180E+02-0.786E-01
CGA:   3    -0.112696765570E+04   -0.11853E+01   -0.12015E+01  1320   0.142E+02 0.238E-01
CGA:   4    -0.112808799136E+04   -0.11203E+01   -0.11244E+01  1320   0.607E+01 0.632E-01
CGA:   5    -0.112856067099E+04   -0.47268E+00   -0.47503E+00  1320   0.174E+01 0.374E-01
CGA:   6    -0.112872567152E+04   -0.16500E+00   -0.16501E+00  1320   0.104E+01 0.553E-02
CGA:   7    -0.112881160321E+04   -0.85932E-01   -0.85927E-01  1320   0.446E+00-0.644E-05
CGA:   8    -0.112884118841E+04   -0.29585E-01   -0.29581E-01  1320   0.199E+00 0.783E-04
CGA:   9    -0.112885335600E+04   -0.12168E-01   -0.12198E-01  1320   0.986E-01 0.250E-04
CGA:  10    -0.112886449572E+04   -0.11140E-01   -0.11134E-01  1320   0.492E-01 0.196E-03
CGA:  11    -0.112886967516E+04   -0.51794E-02   -0.51790E-02  1320   0.288E-01 0.297E-04
CGA:  12    -0.112887307502E+04   -0.33999E-02   -0.33963E-02  1320   0.249E-01 0.107E-03
CGA:  13    -0.112887504078E+04   -0.19658E-02   -0.19660E-02  1320   0.186E-01 0.110E-04
CGA:  14    -0.112887647094E+04   -0.14302E-02   -0.14307E-02  1320   0.107E-01 0.132E-04
CGA:  15    -0.112887761479E+04   -0.11438E-02   -0.11434E-02  1320   0.808E-02 0.235E-04
CGA:  16    -0.112887866617E+04   -0.10514E-02   -0.10511E-02  1320   0.514E-02 0.537E-05
CGA:  17    -0.112887925146E+04   -0.58529E-03   -0.58516E-03  1320   0.294E-02 0.601E-05
CGA:  18    -0.112887956393E+04   -0.31248E-03   -0.31242E-03  1320   0.228E-02 0.495E-05
CGA:  19    -0.112887981682E+04   -0.25289E-03   -0.25285E-03  1320   0.134E-02 0.263E-05
CGA:  20    -0.112887994280E+04   -0.12598E-03   -0.12597E-03  1320   0.115E-02-0.134E-05
CGA:  21    -0.112888003256E+04   -0.89761E-04   -0.89730E-04  1320   0.935E-03-0.189E-05
CGA:  22    -0.112888013140E+04   -0.98843E-04   -0.98870E-04  1320   0.478E-03-0.276E-05
CGA:  23    -0.112888019860E+04   -0.67201E-04   -0.67233E-04  1320   0.344E-03-0.754E-06
CGA:  24    -0.112888024099E+04   -0.42390E-04   -0.42358E-04  1320   0.274E-03 0.130E-05
CGA:  25    -0.112888027043E+04   -0.29438E-04   -0.29432E-04  1320   0.145E-03 0.936E-06
CGA:  26    -0.112888028680E+04   -0.16367E-04   -0.16362E-04  1320   0.122E-03 0.347E-06
CGA:  27    -0.112888029786E+04   -0.11067E-04   -0.11062E-04  1320   0.921E-04-0.517E-06
CGA:  28    -0.112888030501E+04   -0.71491E-05   -0.71346E-05  1320   0.649E-04-0.663E-06
 100 F= -.11288803E+04 E0= -.11288578E+04  d E =0.331885E-01  mag=    20.0000
       N       E                     dE             d eps       ncg     rms          ort
SDA:   1    -0.112465176014E+04    0.42285E+01    0.00000E+00  1320   0.161E+02 0.000E+00
CGA:   2    -0.112700635899E+04   -0.23546E+01   -0.23541E+01  1320   0.794E+01 0.548E-02
CGA:   3    -0.112781433272E+04   -0.80797E+00   -0.80803E+00  1320   0.706E+01-0.942E-01
CGA:   4    -0.112851766362E+04   -0.70333E+00   -0.70329E+00  1320   0.267E+01-0.359E-01
CGA:   5    -0.112873332194E+04   -0.21566E+00   -0.21603E+00  1320   0.741E+00 0.466E-02
CGA:   6    -0.112880326412E+04   -0.69942E-01   -0.69995E-01  1320   0.567E+00 0.394E-02
CGA:   7    -0.112883722334E+04   -0.33959E-01   -0.33866E-01  1320   0.221E+00 0.513E-03
CGA:   8    -0.112885397935E+04   -0.16756E-01   -0.16749E-01  1320   0.782E-01-0.387E-04
CGA:   9    -0.112886142107E+04   -0.74417E-02   -0.74424E-02  1320   0.417E-01 0.197E-03
CGA:  10    -0.112886581609E+04   -0.43950E-02   -0.43949E-02  1320   0.205E-01 0.111E-04
CGA:  11    -0.112886786146E+04   -0.20454E-02   -0.20454E-02  1320   0.180E-01 0.131E-04
CGA:  12    -0.112886922929E+04   -0.13678E-02   -0.13688E-02  1320   0.119E-01 0.157E-04
CGA:  13    -0.112887019638E+04   -0.96709E-03   -0.96703E-03  1320   0.628E-02 0.490E-06
CGA:  14    -0.112887091426E+04   -0.71788E-03   -0.71762E-03  1320   0.416E-02 0.112E-04
CGA:  15    -0.112887137632E+04   -0.46206E-03   -0.46198E-03  1320   0.357E-02 0.409E-05
CGA:  16    -0.112887173296E+04   -0.35663E-03   -0.35663E-03  1320   0.220E-02-0.371E-06
CGA:  17    -0.112887193616E+04   -0.20320E-03   -0.20320E-03  1320   0.203E-02-0.961E-06
CGA:  18    -0.112887207330E+04   -0.13714E-03   -0.13718E-03  1320   0.879E-03-0.168E-06
CGA:  19    -0.112887219158E+04   -0.11828E-03   -0.11833E-03  1320   0.470E-03-0.123E-05
CGA:  20    -0.112887225717E+04   -0.65597E-04   -0.65650E-04  1320   0.445E-03-0.128E-05
CGA:  21    -0.112887229114E+04   -0.33963E-04   -0.33953E-04  1320   0.321E-03-0.347E-06
CGA:  22    -0.112887231950E+04   -0.28368E-04   -0.28368E-04  1320   0.240E-03-0.101E-06
CGA:  23    -0.112887234248E+04   -0.22972E-04   -0.22972E-04  1320   0.154E-03-0.194E-06
CGA:  24    -0.112887235813E+04   -0.15658E-04   -0.15657E-04  1320   0.103E-03 0.312E-06
CGA:  25    -0.112887237004E+04   -0.11904E-04   -0.11900E-04  1320   0.619E-04 0.278E-06
CGA:  26    -0.112887237657E+04   -0.65341E-05   -0.65333E-05  1320   0.620E-04 0.745E-07
 101 F= -.11288724E+04 E0= -.11288497E+04  d E =0.792844E-02  mag=    20.0000
       N       E                     dE             d eps       ncg     rms          ort
SDA:   1    -0.112437795968E+04    0.44944E+01    0.00000E+00  1320   0.154E+02 0.000E+00
CGA:   2    -0.112707921454E+04   -0.27013E+01   -0.27009E+01  1320   0.709E+01 0.548E-02
CGA:   3    -0.112806402317E+04   -0.98481E+00   -0.98537E+00  1320   0.775E+01-0.125E-01
CGA:   4    -0.112854141261E+04   -0.47739E+00   -0.47168E+00  1320   0.303E+01 0.219E-01
CGA:   5    -0.112873024982E+04   -0.18884E+00   -0.18907E+00  1320   0.956E+00-0.182E-02
CGA:   6    -0.112882404613E+04   -0.93796E-01   -0.93794E-01  1320   0.502E+00-0.103E-02
CGA:   7    -0.112886816799E+04   -0.44122E-01   -0.44156E-01  1320   0.180E+00 0.120E-02
CGA:   8    -0.112888194439E+04   -0.13776E-01   -0.13782E-01  1320   0.723E-01 0.675E-04
CGA:   9    -0.112888932523E+04   -0.73808E-02   -0.73800E-02  1320   0.530E-01 0.114E-03
CGA:  10    -0.112889278774E+04   -0.34625E-02   -0.34581E-02  1320   0.277E-01 0.165E-04
CGA:  11    -0.112889513601E+04   -0.23483E-02   -0.23483E-02  1320   0.168E-01 0.110E-04
CGA:  12    -0.112889703076E+04   -0.18948E-02   -0.18939E-02  1320   0.970E-02 0.352E-04
CGA:  13    -0.112889819988E+04   -0.11691E-02   -0.11688E-02  1320   0.561E-02 0.116E-04
CGA:  14    -0.112889885380E+04   -0.65392E-03   -0.65403E-03  1320   0.578E-02-0.446E-05
CGA:  15    -0.112889929634E+04   -0.44254E-03   -0.44264E-03  1320   0.409E-02 0.554E-06
CGA:  16    -0.112889966819E+04   -0.37185E-03   -0.37185E-03  1320   0.286E-02-0.288E-06
CGA:  17    -0.112889993055E+04   -0.26236E-03   -0.26235E-03  1320   0.120E-02-0.210E-05
CGA:  18    -0.112890009439E+04   -0.16384E-03   -0.16388E-03  1320   0.113E-02-0.113E-05
CGA:  19    -0.112890018818E+04   -0.93796E-04   -0.93800E-04  1320   0.616E-03 0.181E-06
CGA:  20    -0.112890024063E+04   -0.52446E-04   -0.52448E-04  1320   0.554E-03 0.326E-06
CGA:  21    -0.112890028984E+04   -0.49214E-04   -0.49215E-04  1320   0.360E-03 0.586E-08
CGA:  22    -0.112890032823E+04   -0.38390E-04   -0.38402E-04  1320   0.245E-03-0.127E-05
CGA:  23    -0.112890035448E+04   -0.26252E-04   -0.26264E-04  1320   0.166E-03-0.111E-05
CGA:  24    -0.112890037666E+04   -0.22178E-04   -0.22235E-04  1320   0.152E-03-0.156E-05
CGA:  25    -0.112890038677E+04   -0.10105E-04   -0.10083E-04  1320   0.100E-03-0.676E-06
CGA:  26    -0.112890039619E+04   -0.94265E-05   -0.94251E-05  1320   0.555E-04-0.366E-06
 102 F= -.11289004E+04 E0= -.11288776E+04  d E =-.280196E-01  mag=    20.0000
       N       E                     dE             d eps       ncg     rms          ort
SDA:   1    -0.112766614381E+04    0.12342E+01    0.00000E+00  1320   0.472E+01 0.000E+00
CGA:   2    -0.112834907550E+04   -0.68293E+00   -0.68245E+00  1320   0.237E+01 0.889E-02
CGA:   3    -0.112854009244E+04   -0.19102E+00   -0.18985E+00  1320   0.247E+01-0.111E-01
CGA:   4    -0.112875010980E+04   -0.21002E+00   -0.21026E+00  1320   0.122E+01 0.522E-02
CGA:   5    -0.112884359331E+04   -0.93484E-01   -0.93506E-01  1320   0.259E+00 0.237E-03
CGA:   6    -0.112886667424E+04   -0.23081E-01   -0.23072E-01  1320   0.161E+00-0.340E-03
CGA:   7    -0.112888087139E+04   -0.14197E-01   -0.14198E-01  1320   0.485E-01 0.501E-04
CGA:   8    -0.112888504916E+04   -0.41778E-02   -0.41790E-02  1320   0.307E-01 0.499E-04
CGA:   9    -0.112888704811E+04   -0.19990E-02   -0.19983E-02  1320   0.142E-01 0.914E-05
CGA:  10    -0.112888822098E+04   -0.11729E-02   -0.11732E-02  1320   0.847E-02 0.125E-04
CGA:  11    -0.112888899381E+04   -0.77283E-03   -0.77286E-03  1320   0.370E-02 0.490E-05
CGA:  12    -0.112888947038E+04   -0.47657E-03   -0.47651E-03  1320   0.263E-02 0.160E-05
CGA:  13    -0.112888972109E+04   -0.25071E-03   -0.25071E-03  1320   0.198E-02 0.145E-05
CGA:  14    -0.112888985921E+04   -0.13812E-03   -0.13814E-03  1320   0.121E-02-0.215E-06
CGA:  15    -0.112888997862E+04   -0.11942E-03   -0.11942E-03  1320   0.872E-03-0.102E-05
CGA:  16    -0.112889008171E+04   -0.10308E-03   -0.10306E-03  1320   0.509E-03 0.105E-05
CGA:  17    -0.112889013892E+04   -0.57214E-04   -0.57220E-04  1320   0.396E-03-0.437E-06
CGA:  18    -0.112889017490E+04   -0.35973E-04   -0.35977E-04  1320   0.316E-03 0.497E-06
CGA:  19    -0.112889019711E+04   -0.22212E-04   -0.22223E-04  1320   0.164E-03 0.406E-06
CGA:  20    -0.112889021520E+04   -0.18093E-04   -0.18094E-04  1320   0.118E-03-0.159E-06
CGA:  21    -0.112889022649E+04   -0.11290E-04   -0.11290E-04  1320   0.765E-04-0.186E-06
CGA:  22    -0.112889023507E+04   -0.85784E-05   -0.85796E-05  1320   0.613E-04-0.891E-07
 103 F= -.11288902E+04 E0= -.11288675E+04  d E =0.101611E-01  mag=    20.0000
       N       E                     dE             d eps       ncg     rms          ort
SDA:   1    -0.112814029653E+04    0.74993E+00    0.00000E+00  1320   0.294E+01 0.000E+00
CGA:   2    -0.112853302594E+04   -0.39273E+00   -0.39298E+00  1320   0.229E+01-0.548E-02
CGA:   3    -0.112866053645E+04   -0.12751E+00   -0.12961E+00  1320   0.131E+01-0.126E-01
CGA:   4    -0.112879824522E+04   -0.13771E+00   -0.13770E+00  1320   0.806E+00 0.642E-03
CGA:   5    -0.112886890629E+04   -0.70661E-01   -0.70638E-01  1320   0.181E+00-0.921E-03
CGA:   6    -0.112888541245E+04   -0.16506E-01   -0.16511E-01  1320   0.100E+00 0.363E-03
CGA:   7    -0.112889429683E+04   -0.88844E-02   -0.88854E-02  1320   0.525E-01 0.630E-04
CGA:   8    -0.112889725678E+04   -0.29599E-02   -0.29564E-02  1320   0.207E-01 0.311E-04
CGA:   9    -0.112889902225E+04   -0.17655E-02   -0.17657E-02  1320   0.905E-02 0.131E-04
CGA:  10    -0.112890001261E+04   -0.99035E-03   -0.99042E-03  1320   0.460E-02-0.376E-05
CGA:  11    -0.112890045663E+04   -0.44403E-03   -0.44401E-03  1320   0.300E-02 0.579E-05
CGA:  12    -0.112890072227E+04   -0.26564E-03   -0.26563E-03  1320   0.276E-02 0.328E-06
CGA:  13    -0.112890093126E+04   -0.20899E-03   -0.20898E-03  1320   0.119E-02-0.823E-06
CGA:  14    -0.112890105757E+04   -0.12631E-03   -0.12631E-03  1320   0.933E-03 0.306E-06
CGA:  15    -0.112890115290E+04   -0.95331E-04   -0.95311E-04  1320   0.626E-03 0.245E-05
CGA:  16    -0.112890122230E+04   -0.69401E-04   -0.69391E-04  1320   0.457E-03 0.611E-06
CGA:  17    -0.112890126084E+04   -0.38534E-04   -0.38538E-04  1320   0.393E-03 0.283E-06
CGA:  18    -0.112890129275E+04   -0.31914E-04   -0.31916E-04  1320   0.210E-03 0.239E-06
CGA:  19    -0.112890131349E+04   -0.20736E-04   -0.20735E-04  1320   0.110E-03 0.275E-06
CGA:  20    -0.112890132674E+04   -0.13257E-04   -0.13250E-04  1320   0.799E-04 0.266E-06
CGA:  21    -0.112890133443E+04   -0.76886E-05   -0.76890E-05  1320   0.725E-04-0.103E-06
 104 F= -.11289013E+04 E0= -.11288787E+04  d E =-.110994E-01  mag=    20.0000
