       N       E                     dE             d eps       ncg     rms          ort
DAV:   1     0.139990184535E+05    0.13999E+05   -0.41239E+05  2016   0.175E+03
DAV:   2     0.190073407782E+04   -0.12098E+05   -0.11830E+05  2016   0.566E+02
DAV:   3    -0.762634472729E+03   -0.26634E+04   -0.25390E+04  2016   0.251E+02
DAV:   4    -0.109712490490E+04   -0.33449E+03   -0.33001E+03  2016   0.117E+02
DAV:   5    -0.111332350396E+04   -0.16199E+02   -0.15712E+02  2016   0.316E+01
SDA:   6    -0.225243365948E+03    0.88808E+03   -0.15712E+02  2016   0.479E+04 0.000E+00
CGA:   7    -0.705859746556E+03   -0.48062E+03   -0.52922E+03  2016   0.168E+04-0.585E+02
CGA:   8    -0.718096374997E+03   -0.12237E+02   -0.10338E+03  2016   0.172E+04-0.639E+03
CGA:   9    -0.695729663980E+03    0.22367E+02   -0.53782E+02  2016   0.365E+04-0.122E+04
CGA:  10    -0.574232315522E+03    0.12150E+03   -0.27318E+03  2016   0.162E+04-0.619E+03
CGA:  11    -0.661977783899E+03   -0.87745E+02   -0.91550E+02  2016   0.858E+03-0.754E+03
CGA:  12    -0.723092211129E+03   -0.61114E+02   -0.22431E+02  2016   0.498E+04-0.534E+04
CGA:  13    -0.622087859947E+03    0.10100E+03   -0.35509E+03  2016   0.111E+04-0.663E+03
CGA:  14    -0.671267230803E+03   -0.49179E+02   -0.48838E+02  2016   0.372E+04-0.433E+04
CGA:  15    -0.623712449154E+03    0.47555E+02   -0.22884E+03  2016   0.112E+04-0.757E+03
CGA:  16    -0.725867581595E+03   -0.10216E+03   -0.49208E+02  2016   0.236E+04-0.412E+04
CGA:  17    -0.637110830216E+03    0.88757E+02   -0.12392E+03  2016   0.101E+04-0.694E+03
CGA:  18    -0.682726352931E+03   -0.45616E+02   -0.33044E+02  2016   0.968E+03-0.531E+03
CGA:  19    -0.655198228017E+03    0.27528E+02   -0.37806E+02  2016   0.108E+04-0.885E+03
CGA:  20    -0.684460164783E+03   -0.29262E+02   -0.43823E+02  2016   0.682E+03-0.723E+03
CGA:  21    -0.810957274648E+03   -0.12650E+03   -0.21984E+02  2016   0.230E+04-0.523E+04
CGA:  22    -0.691095651234E+03    0.11986E+03   -0.10118E+03  2016   0.884E+03-0.551E+03
CGA:  23    -0.672702763207E+03    0.18393E+02   -0.22401E+02  2016   0.784E+03-0.529E+03
CGA:  24    -0.688337901247E+03   -0.15635E+02   -0.26027E+02  2016   0.706E+03-0.685E+03
CGA:  25    -0.697157553815E+03   -0.88197E+01   -0.21008E+02  2016   0.679E+04-0.685E+04
CGA:  26    -0.665909889542E+03    0.31248E+02   -0.32933E+03  2016   0.860E+03-0.722E+03
CGA:  27    -0.829155184645E+03   -0.16325E+03   -0.28494E+02  2016   0.174E+04-0.472E+04
CGA:  28    -0.695936721704E+03    0.13322E+03   -0.54340E+02  2016   0.330E+04-0.116E+04
CGA:  29    -0.664188701782E+03    0.31748E+02   -0.13469E+03  2016   0.807E+03-0.654E+03
CGA:  30    -0.715347644637E+03   -0.51159E+02   -0.24365E+02  2016   0.559E+04-0.612E+04
CGA:  31    -0.662018620856E+03    0.53329E+02   -0.22589E+03  2016   0.837E+03-0.638E+03
CGA:  32    -0.708996572283E+03   -0.46978E+02   -0.26886E+02  2016   0.114E+04-0.120E+04
CGA:  33    -0.678933539906E+03    0.30063E+02   -0.30820E+02  2016   0.726E+03-0.617E+03
CGA:  34    -0.704710956952E+03   -0.25777E+02   -0.20056E+02  2016   0.620E+03-0.674E+03
CGA:  35    -0.713713482934E+03   -0.90025E+01   -0.12683E+02  2016   0.866E+04-0.894E+04
CGA:  36    -0.686333535018E+03    0.27380E+02   -0.31247E+03  2016   0.720E+03-0.638E+03
CGA:  37    -0.854426383222E+03   -0.16809E+03   -0.17006E+02  2016   0.109E+04-0.442E+04
CGA:  38    -0.822840492065E+03    0.31586E+02   -0.22502E+02  2016   0.569E+04-0.165E+04
CGA:  39    -0.693275613439E+03    0.12956E+03   -0.16605E+03  2016   0.122E+04-0.500E+03
CGA:  40    -0.701295600959E+03   -0.80200E+01   -0.28551E+02  2016   0.643E+03-0.590E+03
CGA:  41    -0.777461112206E+03   -0.76166E+02   -0.69448E+01  2016   0.114E+05-0.127E+05
CGA:  42    -0.686317131343E+03    0.91144E+02   -0.33083E+03  2016   0.924E+03-0.601E+03
CGA:  43    -0.707403091115E+03   -0.21086E+02   -0.20897E+02  2016   0.315E+04-0.310E+04
CGA:  44    -0.689536955187E+03    0.17866E+02   -0.79855E+02  2016   0.701E+03-0.630E+03
CGA:  45    -0.745083350054E+03   -0.55546E+02   -0.13031E+02  2016   0.934E+04-0.106E+05
CGA:  46    -0.685219956518E+03    0.59863E+02   -0.23941E+03  2016   0.885E+03-0.698E+03
CGA:  47    -0.715347478180E+03   -0.30128E+02   -0.19114E+02  2016   0.456E+04-0.461E+04
CGA:  48    -0.689257657365E+03    0.26090E+02   -0.10619E+03  2016   0.707E+03-0.621E+03
CGA:  49    -0.736644429390E+03   -0.47387E+02   -0.13333E+02  2016   0.770E+04-0.854E+04
CGA:  50    -0.689075439656E+03    0.47569E+02   -0.17360E+03  2016   0.752E+03-0.628E+03
CGA:  51    -0.721592130303E+03   -0.32517E+02   -0.14405E+02  2016   0.588E+04-0.613E+04
CGA:  52    -0.690759896190E+03    0.30832E+02   -0.12458E+03  2016   0.705E+03-0.611E+03
CGA:  53    -0.726210522019E+03   -0.35451E+02   -0.12693E+02  2016   0.672E+04-0.710E+04
CGA:  54    -0.691766392888E+03    0.34444E+02   -0.13546E+03  2016   0.696E+03-0.600E+03
CGA:  55    -0.723163183751E+03   -0.31397E+02   -0.12128E+02  2016   0.578E+04-0.604E+04
CGA:  56    -0.693226688864E+03    0.29936E+02   -0.10884E+03  2016   0.683E+03-0.600E+03
CGA:  57    -0.720073206274E+03   -0.26847E+02   -0.11268E+02  2016   0.466E+04-0.475E+04
CGA:  58    -0.694713281294E+03    0.25360E+02   -0.81457E+02  2016   0.779E+03-0.697E+03
CGA:  59    -0.715117774191E+03   -0.20404E+02   -0.12082E+02  2016   0.205E+04-0.196E+04
CGA:  60    -0.712380397331E+03    0.27374E+01   -0.29799E+02  2016   0.923E+04-0.903E+04
CGA:  61    -0.709889943762E+03    0.24905E+01   -0.16354E+03  2016   0.587E+03-0.576E+03
CGA:  62    -0.850133892358E+03   -0.14024E+03   -0.54241E+01  2016   0.290E+04 0.870E+04
CGA:  63    -0.853606714105E+03   -0.34728E+01   -0.28083E+02  2016   0.286E+04-0.292E+04
CGA:  64    -0.855013409013E+03   -0.14067E+01   -0.27437E+02  2016   0.234E+04-0.242E+04
CGA:  65    -0.862899435192E+03   -0.78860E+01   -0.18737E+02  2016   0.920E+03-0.151E+04
CGA:  66    -0.866831732335E+03   -0.39323E+01   -0.60949E+01  2016   0.106E+03-0.298E+03
CGA:  67    -0.867389789200E+03   -0.55806E+00   -0.58287E+00  2016   0.238E+01-0.259E+01
CGA:  68    -0.867477456606E+03   -0.87667E-01   -0.85777E-01  2016   0.109E+02 0.164E+00
CGA:  69    -0.868172783046E+03   -0.69533E+00   -0.60435E+00  2016   0.250E+01 0.338E+01
CGA:  70    -0.868249545032E+03   -0.76762E-01   -0.79090E-01  2016   0.299E+01 0.105E+00
CGA:  71    -0.868396709155E+03   -0.14716E+00   -0.13740E+00  2016   0.403E+01 0.543E+00
CGA:  72    -0.868687330610E+03   -0.29062E+00   -0.26566E+00  2016   0.127E+01 0.866E+00
CGA:  73    -0.868748008936E+03   -0.60678E-01   -0.59958E-01  2016   0.957E+00 0.687E-01
CGA:  74    -0.868818194685E+03   -0.70186E-01   -0.64358E-01  2016   0.131E+01 0.176E+00
CGA:  75    -0.868914105844E+03   -0.95911E-01   -0.90408E-01  2016   0.592E+00 0.197E+00
CGA:  76    -0.868955003126E+03   -0.40897E-01   -0.39608E-01  2016   0.461E+00 0.489E-01
CGA:  77    -0.868999793222E+03   -0.44790E-01   -0.42012E-01  2016   0.448E+00 0.598E-01
CGA:  78    -0.869035300716E+03   -0.35507E-01   -0.33731E-01  2016   0.232E+00 0.566E-01
CGA:  79    -0.869058324633E+03   -0.23024E-01   -0.22286E-01  2016   0.258E+00 0.162E-01
CGA:  80    -0.869086551124E+03   -0.28226E-01   -0.26789E-01  2016   0.171E+00 0.271E-01
CGA:  81    -0.869099418711E+03   -0.12868E-01   -0.12706E-01  2016   0.973E-01 0.582E-02
CGA:  82    -0.869111521717E+03   -0.12103E-01   -0.12056E-01  2016   0.100E+00 0.865E-03
CGA:  83    -0.869119925826E+03   -0.84041E-02   -0.83346E-02  2016   0.484E-01 0.175E-02
CGA:  84    -0.869124415486E+03   -0.44897E-02   -0.45056E-02  2016   0.432E-01-0.409E-03
CGA:  85    -0.869128708549E+03   -0.42931E-02   -0.42972E-02  2016   0.283E-01-0.900E-04
CGA:  86    -0.869131141097E+03   -0.24325E-02   -0.24374E-02  2016   0.194E-01-0.165E-03
CGA:  87    -0.869133265342E+03   -0.21242E-02   -0.21200E-02  2016   0.171E-01 0.785E-04
CGA:  88    -0.869134699850E+03   -0.14345E-02   -0.14335E-02  2016   0.966E-02 0.630E-04
CGA:  89    -0.869135802260E+03   -0.11024E-02   -0.10927E-02  2016   0.936E-02 0.190E-03
CGA:  90    -0.869136713101E+03   -0.91084E-03   -0.90720E-03  2016   0.666E-02 0.128E-03
CGA:  91    -0.869137308337E+03   -0.59524E-03   -0.59214E-03  2016   0.447E-02 0.141E-03
CGA:  92    -0.869137810757E+03   -0.50242E-03   -0.49741E-03  2016   0.378E-02 0.121E-03
CGA:  93    -0.869138169308E+03   -0.35855E-03   -0.35639E-03  2016   0.266E-02 0.993E-04
CGA:  94    -0.869138441426E+03   -0.27212E-03   -0.27021E-03  2016   0.221E-02 0.683E-04
CGA:  95    -0.869138679743E+03   -0.23832E-03   -0.23623E-03  2016   0.170E-02 0.633E-04
SDA:  96    -0.869138833202E+03   -0.15346E-03   -0.15298E-03  2016   0.121E-02 0.344E-04
CGA:  97    -0.869138881893E+03   -0.48691E-04   -0.48662E-04  2016   0.457E-03-0.226E-05
CGA:  98    -0.869139016036E+03   -0.13414E-03   -0.14002E-03  2016   0.121E-02-0.263E-04
CGA:  99    -0.869139126896E+03   -0.11086E-03   -0.11110E-03  2016   0.102E-02-0.174E-04
CGA: 100    -0.869139262995E+03   -0.13610E-03   -0.13748E-03  2016   0.728E-03-0.257E-04
CGA: 101    -0.869139317196E+03   -0.54201E-04   -0.54136E-04  2016   0.427E-03-0.629E-05
CGA: 102    -0.869139372064E+03   -0.54868E-04   -0.54946E-04  2016   0.408E-03-0.180E-05
CGA: 103    -0.869139411421E+03   -0.39358E-04   -0.39338E-04  2016   0.318E-03 0.260E-05
CGA: 104    -0.869139448839E+03   -0.37418E-04   -0.37202E-04  2016   0.279E-03 0.799E-05
CGA: 105    -0.869139483578E+03   -0.34738E-04   -0.34349E-04  2016   0.291E-03 0.131E-04
CGA: 106    -0.869139507085E+03   -0.23508E-04   -0.23668E-04  2016   0.206E-03 0.113E-04
CGA: 107    -0.869139533367E+03   -0.26282E-04   -0.25821E-04  2016   0.190E-03 0.158E-04
CGA: 108    -0.869139566744E+03   -0.33376E-04   -0.32124E-04  2016   0.183E-03 0.196E-04
CGA: 109    -0.869139587777E+03   -0.21034E-04   -0.20954E-04  2016   0.113E-03 0.103E-04
CGA: 110    -0.869139603003E+03   -0.15226E-04   -0.15092E-04  2016   0.176E-03 0.439E-05
CGA: 111    -0.869139621728E+03   -0.18725E-04   -0.18712E-04  2016   0.108E-03 0.282E-05
CGA: 112    -0.869139630821E+03   -0.90922E-05   -0.90709E-05  2016   0.101E-03-0.130E-05
CGA: 113    -0.869139656148E+03   -0.25327E-04   -0.27512E-04  2016   0.181E-03-0.122E-04
CGA: 114    -0.869139666129E+03   -0.99815E-05   -0.97665E-05  2016   0.888E-04-0.480E-05
CGA: 115    -0.869139682965E+03   -0.16836E-04   -0.17737E-04  2016   0.168E-03-0.887E-05
CGA: 116    -0.869139699632E+03   -0.16667E-04   -0.16677E-04  2016   0.118E-03-0.883E-05
CGA: 117    -0.869139711309E+03   -0.11677E-04   -0.11655E-04  2016   0.107E-03-0.468E-05
CGA: 118    -0.869139723640E+03   -0.12331E-04   -0.12374E-04  2016   0.127E-03-0.397E-05
CGA: 119    -0.869139738079E+03   -0.14439E-04   -0.14467E-04  2016   0.928E-04-0.300E-05
CGA: 120    -0.869139746163E+03   -0.80838E-05   -0.80690E-05  2016   0.591E-04-0.712E-06
   1 F= -.86913975E+03 E0= -.86912428E+03  d E =-.869140E+03  mag=    14.0000
       N       E                     dE             d eps       ncg     rms          ort
SDA:   1    -0.869130458414E+03    0.92797E-02    0.00000E+00  2016   0.967E-01 0.000E+00
CGA:   2    -0.869134446112E+03   -0.39877E-02   -0.39808E-02  2016   0.250E-01 0.117E-03
CGA:   3    -0.869136734943E+03   -0.22888E-02   -0.22880E-02  2016   0.177E-01-0.157E-04
CGA:   4    -0.869138394326E+03   -0.16594E-02   -0.16598E-02  2016   0.122E-01 0.143E-04
CGA:   5    -0.869139298839E+03   -0.90451E-03   -0.90259E-03  2016   0.542E-02-0.960E-05
CGA:   6    -0.869139787310E+03   -0.48847E-03   -0.48841E-03  2016   0.255E-02-0.233E-05
CGA:   7    -0.869139981955E+03   -0.19465E-03   -0.19456E-03  2016   0.811E-03-0.362E-05
CGA:   8    -0.869140043720E+03   -0.61764E-04   -0.61734E-04  2016   0.411E-03-0.110E-05
CGA:   9    -0.869140077112E+03   -0.33392E-04   -0.33369E-04  2016   0.287E-03-0.117E-05
CGA:  10    -0.869140100190E+03   -0.23078E-04   -0.23057E-04  2016   0.109E-03-0.115E-05
CGA:  11    -0.869140109242E+03   -0.90525E-05   -0.90447E-05  2016   0.743E-04-0.496E-06
   2 F= -.86914011E+03 E0= -.86912463E+03  d E =-.363080E-03  mag=    14.0000
