       N       E                     dE             d eps       ncg     rms          ort
DAV:   1     0.140288987195E+05    0.14029E+05   -0.41249E+05  2016   0.175E+03
DAV:   2     0.191310700146E+04   -0.12116E+05   -0.11846E+05  2016   0.567E+02
DAV:   3    -0.756578047283E+03   -0.26697E+04   -0.25429E+04  2016   0.252E+02
DAV:   4    -0.109608227949E+04   -0.33950E+03   -0.33488E+03  2016   0.118E+02
DAV:   5    -0.111281995048E+04   -0.16738E+02   -0.16231E+02  2016   0.321E+01
SDA:   6    -0.228434152426E+03    0.88439E+03   -0.16231E+02  2016   0.453E+04 0.000E+00
CGA:   7    -0.711324912184E+03   -0.48289E+03   -0.50518E+03  2016   0.157E+04-0.487E+02
CGA:   8    -0.729435570668E+03   -0.18111E+02   -0.99188E+02  2016   0.138E+04-0.514E+03
CGA:   9    -0.706941227733E+03    0.22494E+02   -0.46598E+02  2016   0.449E+04-0.155E+04
CGA:  10    -0.578188272274E+03    0.12875E+03   -0.34793E+03  2016   0.149E+04-0.584E+03
CGA:  11    -0.661066251881E+03   -0.82878E+02   -0.82500E+02  2016   0.988E+03-0.945E+03
CGA:  12    -0.649598284489E+03    0.11468E+02   -0.44895E+02  2016   0.409E+04-0.417E+04
CGA:  13    -0.628654417379E+03    0.20944E+02   -0.27838E+03  2016   0.993E+03-0.845E+03
CGA:  14    -0.779648911272E+03   -0.15099E+03   -0.41002E+02  2016   0.358E+04-0.689E+04
CGA:  15    -0.653676980276E+03    0.12597E+03   -0.22782E+03  2016   0.106E+04-0.520E+03
CGA:  16    -0.657534595476E+03   -0.38576E+01   -0.42874E+02  2016   0.216E+04-0.146E+04
CGA:  17    -0.646673244772E+03    0.10861E+02   -0.11878E+03  2016   0.965E+03-0.769E+03
CGA:  18    -0.692551781044E+03   -0.45879E+02   -0.33316E+02  2016   0.137E+04-0.107E+04
CGA:  19    -0.645632107164E+03    0.46920E+02   -0.60903E+02  2016   0.944E+03-0.678E+03
CGA:  20    -0.701157672478E+03   -0.55526E+02   -0.30259E+02  2016   0.652E+03-0.366E+03
CGA:  21    -0.823854720531E+03   -0.12270E+03   -0.11855E+02  2016   0.914E+03 0.164E+04
CGA:  22    -0.840771989303E+03   -0.16917E+02   -0.34158E+02  2016   0.116E+04-0.774E+03
CGA:  23    -0.833520782446E+03    0.72512E+01   -0.53661E+02  2016   0.589E+03-0.389E+03
CGA:  24    -0.835645239573E+03   -0.21245E+01   -0.14351E+02  2016   0.139E+04-0.377E+03
CGA:  25    -0.804526654963E+03    0.31119E+02   -0.53716E+02  2016   0.114E+04-0.543E+03
CGA:  26    -0.811970810869E+03   -0.74442E+01   -0.27885E+02  2016   0.825E+03-0.461E+03
CGA:  27    -0.846790589479E+03   -0.34820E+02   -0.89535E+01  2016   0.101E+04 0.132E+04
CGA:  28    -0.805286976115E+03    0.41504E+02   -0.31705E+02  2016   0.234E+04-0.110E+04
CGA:  29    -0.805344670149E+03   -0.57694E-01   -0.10122E+03  2016   0.594E+03-0.456E+03
CGA:  30    -0.828243355346E+03   -0.22899E+02   -0.98086E+01  2016   0.677E+03 0.789E+03
CGA:  31    -0.847803935567E+03   -0.19561E+02   -0.14011E+02  2016   0.149E+04-0.199E+04
CGA:  32    -0.808006631813E+03    0.39797E+02   -0.45978E+02  2016   0.256E+04-0.970E+03
CGA:  33    -0.759796743907E+03    0.48210E+02   -0.75037E+02  2016   0.250E+04-0.153E+04
CGA:  34    -0.731032040478E+03    0.28765E+02   -0.76951E+02  2016   0.471E+04-0.267E+04
CGA:  35    -0.699078959549E+03    0.31953E+02   -0.16307E+03  2016   0.702E+03-0.701E+03
CGA:  36    -0.829510282953E+03   -0.13043E+03   -0.13188E+02  2016   0.254E+04-0.553E+04
CGA:  37    -0.780045069620E+03    0.49465E+02   -0.64191E+02  2016   0.350E+04-0.215E+04
CGA:  38    -0.732716353546E+03    0.47329E+02   -0.98763E+02  2016   0.531E+04-0.286E+04
CGA:  39    -0.700147508294E+03    0.32569E+02   -0.16428E+03  2016   0.669E+03-0.590E+03
CGA:  40    -0.828709726493E+03   -0.12856E+03   -0.11812E+02  2016   0.362E+04-0.735E+04
CGA:  41    -0.777910579021E+03    0.50799E+02   -0.87575E+02  2016   0.390E+04-0.250E+04
CGA:  42    -0.726692223406E+03    0.51218E+02   -0.98250E+02  2016   0.575E+04-0.373E+04
CGA:  43    -0.699592651702E+03    0.27100E+02   -0.15871E+03  2016   0.686E+03-0.625E+03
CGA:  44    -0.831900325086E+03   -0.13231E+03   -0.11413E+02  2016   0.335E+04-0.708E+04
CGA:  45    -0.800664516684E+03    0.31236E+02   -0.68227E+02  2016   0.428E+04-0.311E+04
CGA:  46    -0.763030833905E+03    0.37634E+02   -0.93423E+02  2016   0.519E+04-0.353E+04
CGA:  47    -0.724605838328E+03    0.38425E+02   -0.11906E+03  2016   0.797E+04-0.641E+04
CGA:  48    -0.696849257207E+03    0.27757E+02   -0.19352E+03  2016   0.212E+04-0.181E+04
CGA:  49    -0.728652789438E+03   -0.31804E+02   -0.36668E+02  2016   0.763E+04-0.830E+04
CGA:  50    -0.692100074404E+03    0.36553E+02   -0.17281E+03  2016   0.685E+03-0.581E+03
CGA:  51    -0.765154452462E+03   -0.73054E+02   -0.11633E+02  2016   0.775E+04-0.103E+05
CGA:  52    -0.695912406143E+03    0.69242E+02   -0.15917E+03  2016   0.180E+04-0.135E+04
CGA:  53    -0.711283754971E+03   -0.15371E+02   -0.29534E+02  2016   0.170E+04-0.165E+04
CGA:  54    -0.702063003890E+03    0.92208E+01   -0.28145E+02  2016   0.452E+04-0.430E+04
CGA:  55    -0.706205822988E+03   -0.41428E+01   -0.89614E+02  2016   0.677E+03-0.666E+03
CGA:  56    -0.851631146974E+03   -0.14543E+03   -0.75118E+01  2016   0.225E+04 0.679E+04
CGA:  57    -0.838674540235E+03    0.12957E+02   -0.24590E+02  2016   0.619E+04-0.399E+04
CGA:  58    -0.793974553845E+03    0.44700E+02   -0.93079E+02  2016   0.571E+04-0.337E+04
CGA:  59    -0.730279267247E+03    0.63695E+02   -0.84658E+02  2016   0.902E+04-0.631E+04
CGA:  60    -0.709241898589E+03    0.21037E+02   -0.15274E+03  2016   0.170E+04-0.153E+04
CGA:  61    -0.806468366329E+03   -0.97226E+02   -0.19934E+02  2016   0.109E+05-0.162E+05
CGA:  62    -0.743389754721E+03    0.63079E+02   -0.16265E+03  2016   0.846E+04-0.583E+04
CGA:  63    -0.709784911737E+03    0.33605E+02   -0.12705E+03  2016   0.535E+04-0.457E+04
CGA:  64    -0.716094589132E+03   -0.63097E+01   -0.81250E+02  2016   0.488E+04-0.488E+04
CGA:  65    -0.731385043066E+03   -0.15290E+02   -0.69520E+02  2016   0.905E+04-0.946E+04
CGA:  66    -0.729405958308E+03    0.19791E+01   -0.12906E+03  2016   0.745E+04-0.729E+04
CGA:  67    -0.745285661815E+03   -0.15880E+02   -0.10143E+03  2016   0.103E+05-0.109E+05
CGA:  68    -0.750518871681E+03   -0.52332E+01   -0.13817E+03  2016   0.841E+04-0.856E+04
CGA:  69    -0.774196321441E+03   -0.23677E+02   -0.10538E+03  2016   0.113E+05-0.125E+05
CGA:  70    -0.781586647286E+03   -0.73903E+01   -0.13799E+03  2016   0.776E+04-0.811E+04
CGA:  71    -0.815925612812E+03   -0.34339E+02   -0.85654E+02  2016   0.871E+04-0.111E+05
CGA:  72    -0.829476048346E+03   -0.13550E+02   -0.90535E+02  2016   0.491E+04-0.568E+04
CGA:  73    -0.860267043274E+03   -0.30791E+02   -0.40903E+02  2016   0.143E+04-0.325E+04
CGA:  74    -0.866489976709E+03   -0.62229E+01   -0.10073E+02  2016   0.183E+03-0.481E+03
CGA:  75    -0.867495434345E+03   -0.10055E+01   -0.10009E+01  2016   0.168E+01-0.479E+00
CGA:  76    -0.867635284197E+03   -0.13985E+00   -0.12895E+00  2016   0.982E+01 0.240E+00
CGA:  77    -0.868007423338E+03   -0.37214E+00   -0.35588E+00  2016   0.109E+02 0.178E+01
CGA:  78    -0.868319546452E+03   -0.31212E+00   -0.31630E+00  2016   0.350E+01 0.184E+01
CGA:  79    -0.868430813324E+03   -0.11127E+00   -0.11046E+00  2016   0.160E+01 0.345E+00
CGA:  80    -0.868513484077E+03   -0.82671E-01   -0.77949E-01  2016   0.221E+01 0.226E+00
CGA:  81    -0.868659960141E+03   -0.14648E+00   -0.13288E+00  2016   0.125E+01 0.496E+00
CGA:  82    -0.868724412743E+03   -0.64453E-01   -0.62708E-01  2016   0.835E+00 0.108E+00
CGA:  83    -0.868791207057E+03   -0.66794E-01   -0.61227E-01  2016   0.851E+00 0.148E+00
CGA:  84    -0.868862953347E+03   -0.71746E-01   -0.66774E-01  2016   0.627E+00 0.138E+00
CGA:  85    -0.868906033239E+03   -0.43080E-01   -0.41107E-01  2016   0.373E+00 0.736E-01
CGA:  86    -0.868943641724E+03   -0.37608E-01   -0.35601E-01  2016   0.332E+00 0.419E-01
CGA:  87    -0.868973662221E+03   -0.30020E-01   -0.28370E-01  2016   0.248E+00 0.405E-01
CGA:  88    -0.868996783622E+03   -0.23121E-01   -0.22359E-01  2016   0.203E+00 0.182E-01
CGA:  89    -0.869018052260E+03   -0.21269E-01   -0.20706E-01  2016   0.164E+00 0.110E-01
CGA:  90    -0.869032032942E+03   -0.13981E-01   -0.13660E-01  2016   0.865E-01 0.836E-02
CGA:  91    -0.869040796631E+03   -0.87637E-02   -0.86779E-02  2016   0.785E-01 0.179E-02
CGA:  92    -0.869049245647E+03   -0.84490E-02   -0.83005E-02  2016   0.519E-01 0.275E-02
CGA:  93    -0.869053674730E+03   -0.44291E-02   -0.44113E-02  2016   0.363E-01 0.461E-03
CGA:  94    -0.869057717800E+03   -0.40431E-02   -0.40233E-02  2016   0.308E-01 0.361E-03
CGA:  95    -0.869060315862E+03   -0.25981E-02   -0.26073E-02  2016   0.194E-01-0.281E-03
CGA:  96    -0.869062154358E+03   -0.18385E-02   -0.18277E-02  2016   0.151E-01 0.262E-03
CGA:  97    -0.869063826956E+03   -0.16726E-02   -0.16643E-02  2016   0.124E-01 0.162E-03
CGA:  98    -0.869064957211E+03   -0.11303E-02   -0.11250E-02  2016   0.803E-02 0.181E-03
CGA:  99    -0.869065863588E+03   -0.90638E-03   -0.90026E-03  2016   0.741E-02 0.130E-03
CGA: 100    -0.869066601229E+03   -0.73764E-03   -0.73201E-03  2016   0.523E-02 0.171E-03
CGA: 101    -0.869067086205E+03   -0.48498E-03   -0.48321E-03  2016   0.407E-02 0.806E-04
CGA: 102    -0.869067520822E+03   -0.43462E-03   -0.43085E-03  2016   0.334E-02 0.102E-03
CGA: 103    -0.869067883996E+03   -0.36317E-03   -0.36123E-03  2016   0.264E-02 0.565E-04
SDA: 104    -0.869068153438E+03   -0.26944E-03   -0.26844E-03  2016   0.227E-02 0.388E-04
CGA: 105    -0.869068242934E+03   -0.89496E-04   -0.89293E-04  2016   0.710E-03-0.501E-05
CGA: 106    -0.869068457548E+03   -0.21461E-03   -0.22719E-03  2016   0.260E-02-0.498E-04
CGA: 107    -0.869068680841E+03   -0.22329E-03   -0.22381E-03  2016   0.177E-02-0.562E-04
CGA: 108    -0.869068877783E+03   -0.19694E-03   -0.19854E-03  2016   0.195E-02-0.513E-04
CGA: 109    -0.869069090010E+03   -0.21223E-03   -0.21377E-03  2016   0.110E-02-0.561E-04
CGA: 110    -0.869069180832E+03   -0.90823E-04   -0.90781E-04  2016   0.643E-03-0.197E-04
CGA: 111    -0.869069327963E+03   -0.14713E-03   -0.14933E-03  2016   0.783E-03-0.144E-04
CGA: 112    -0.869069405435E+03   -0.77472E-04   -0.77460E-04  2016   0.907E-03 0.262E-05
CGA: 113    -0.869069526987E+03   -0.12155E-03   -0.12089E-03  2016   0.942E-03 0.176E-04
CGA: 114    -0.869069620348E+03   -0.93361E-04   -0.93343E-04  2016   0.897E-03 0.219E-04
CGA: 115    -0.869069710770E+03   -0.90421E-04   -0.90363E-04  2016   0.564E-03 0.290E-04
CGA: 116    -0.869069785144E+03   -0.74374E-04   -0.73628E-04  2016   0.826E-03 0.254E-04
CGA: 117    -0.869069885817E+03   -0.10067E-03   -0.10007E-03  2016   0.451E-03 0.335E-04
CGA: 118    -0.869069937919E+03   -0.52102E-04   -0.51989E-04  2016   0.504E-03 0.971E-05
CGA: 119    -0.869070010517E+03   -0.72598E-04   -0.72373E-04  2016   0.507E-03 0.552E-05
CGA: 120    -0.869070058352E+03   -0.47835E-04   -0.47807E-04  2016   0.312E-03-0.290E-05
CGA: 121    -0.869070107265E+03   -0.48913E-04   -0.49543E-04  2016   0.663E-03-0.103E-04
CGA: 122    -0.869070171168E+03   -0.63903E-04   -0.63825E-04  2016   0.469E-03-0.178E-04
CGA: 123    -0.869070214270E+03   -0.43101E-04   -0.43007E-04  2016   0.373E-03-0.102E-04
CGA: 124    -0.869070278616E+03   -0.64347E-04   -0.65181E-04  2016   0.401E-03-0.110E-04
CGA: 125    -0.869070310090E+03   -0.31474E-04   -0.31403E-04  2016   0.273E-03-0.321E-05
CGA: 126    -0.869070352305E+03   -0.42215E-04   -0.42104E-04  2016   0.268E-03 0.226E-05
CGA: 127    -0.869070383643E+03   -0.31337E-04   -0.31301E-04  2016   0.271E-03 0.457E-05
CGA: 128    -0.869070412495E+03   -0.28853E-04   -0.28873E-04  2016   0.173E-03 0.544E-05
CGA: 129    -0.869070429825E+03   -0.17330E-04   -0.17361E-04  2016   0.183E-03 0.306E-05
CGA: 130    -0.869070450891E+03   -0.21065E-04   -0.21055E-04  2016   0.127E-03 0.216E-05
CGA: 131    -0.869070461725E+03   -0.10834E-04   -0.10825E-04  2016   0.110E-03-0.373E-06
CGA: 132    -0.869070478369E+03   -0.16644E-04   -0.16834E-04  2016   0.103E-03-0.413E-05
CGA: 133    -0.869070490137E+03   -0.11768E-04   -0.11803E-04  2016   0.731E-04-0.370E-05
CGA: 134    -0.869070499846E+03   -0.97087E-05   -0.98120E-05  2016   0.108E-03-0.346E-05
   1 F= -.86907050E+03 E0= -.86905497E+03  d E =-.869070E+03  mag=    14.0000
       N       E                     dE             d eps       ncg     rms          ort
SDA:   1    -0.869067520507E+03    0.29696E-02    0.00000E+00  2016   0.398E-01 0.000E+00
CGA:   2    -0.869068985213E+03   -0.14647E-02   -0.14835E-02  2016   0.772E-02-0.374E-03
CGA:   3    -0.869069713442E+03   -0.72823E-03   -0.72799E-03  2016   0.532E-02-0.124E-04
CGA:   4    -0.869070188492E+03   -0.47505E-03   -0.47511E-03  2016   0.332E-02 0.528E-08
CGA:   5    -0.869070491692E+03   -0.30320E-03   -0.30319E-03  2016   0.159E-02 0.387E-06
CGA:   6    -0.869070609807E+03   -0.11812E-03   -0.11811E-03  2016   0.946E-03-0.531E-06
CGA:   7    -0.869070688115E+03   -0.78309E-04   -0.78280E-04  2016   0.211E-03-0.125E-05
CGA:   8    -0.869070704339E+03   -0.16224E-04   -0.16224E-04  2016   0.156E-03 0.372E-07
CGA:   9    -0.869070718291E+03   -0.13952E-04   -0.13948E-04  2016   0.774E-04-0.288E-06
CGA:  10    -0.869070724077E+03   -0.57865E-05   -0.57818E-05  2016   0.406E-04-0.183E-06
   2 F= -.86907072E+03 E0= -.86905518E+03  d E =-.224231E-03  mag=    14.0000
