       N       E                     dE             d eps       ncg     rms          ort
DAV:   1     0.137095712085E+05    0.13710E+05   -0.62393E+05  2944   0.167E+03
DAV:   2     0.505481818369E+03   -0.13204E+05   -0.12213E+05  2944   0.464E+02
DAV:   3    -0.126468071704E+04   -0.17702E+04   -0.17357E+04  2944   0.182E+02
DAV:   4    -0.134452293108E+04   -0.79842E+02   -0.78764E+02  2944   0.385E+01
DAV:   5    -0.134903689536E+04   -0.45140E+01   -0.44879E+01  2944   0.693E+00
SDA:   6    -0.852260306896E+03    0.49678E+03   -0.44879E+01  2944   0.211E+04 0.000E+00
CGA:   7    -0.112041864958E+04   -0.26816E+03   -0.28734E+03  2944   0.432E+03 0.705E+02
CGA:   8    -0.114320028690E+04   -0.22782E+02   -0.45478E+02  2944   0.224E+03-0.204E+02
CGA:   9    -0.115486188752E+04   -0.11662E+02   -0.15488E+02  2944   0.275E+03-0.117E+03
CGA:  10    -0.115967310426E+04   -0.48112E+01   -0.23672E+02  2944   0.226E+03-0.909E+01
CGA:  11    -0.116476467482E+04   -0.50916E+01   -0.19298E+02  2944   0.168E+03 0.220E+02
CGA:  12    -0.117216255965E+04   -0.73979E+01   -0.18132E+02  2944   0.160E+03 0.320E+01
CGA:  13    -0.117145657541E+04    0.70598E+00   -0.11884E+02  2944   0.359E+03-0.144E+03
CGA:  14    -0.117465794737E+04   -0.32014E+01   -0.28541E+02  2944   0.870E+02-0.239E+02
CGA:  15    -0.117113482540E+04    0.35231E+01   -0.48379E+01  2944   0.421E+03-0.253E+03
CGA:  16    -0.117246910662E+04   -0.13343E+01   -0.31409E+02  2944   0.995E+02-0.473E+02
CGA:  17    -0.117707798984E+04   -0.46089E+01   -0.53453E+01  2944   0.195E+03-0.281E+03
CGA:  18    -0.117642400484E+04    0.65398E+00   -0.12823E+02  2944   0.507E+02-0.186E+02
CGA:  19    -0.117799997232E+04   -0.15760E+01   -0.20831E+01  2944   0.248E+03-0.218E+03
CGA:  20    -0.117531063323E+04    0.26893E+01   -0.15578E+02  2944   0.761E+02-0.326E+02
CGA:  21    -0.117717935142E+04   -0.18687E+01   -0.32948E+01  2944   0.193E+03-0.191E+03
CGA:  22    -0.117619004737E+04    0.98930E+00   -0.10919E+02  2944   0.503E+02-0.380E+02
CGA:  23    -0.117831611907E+04   -0.21261E+01   -0.17731E+01  2944   0.239E+03-0.173E+03
CGA:  24    -0.117618533076E+04    0.21308E+01   -0.13274E+02  2944   0.511E+02-0.316E+02
CGA:  25    -0.117988542272E+04   -0.37001E+01   -0.16337E+01  2944   0.194E+03-0.250E+03
CGA:  26    -0.117689039734E+04    0.29950E+01   -0.96261E+01  2944   0.592E+02-0.317E+02
CGA:  27    -0.117976045717E+04   -0.28701E+01   -0.19497E+01  2944   0.154E+03-0.162E+03
CGA:  28    -0.117721618163E+04    0.25443E+01   -0.69957E+01  2944   0.513E+02-0.356E+02
CGA:  29    -0.118336332053E+04   -0.61471E+01   -0.12937E+01  2944   0.440E+02-0.114E+03
CGA:  30    -0.118248656438E+04    0.87676E+00   -0.14876E+01  2944   0.113E+03-0.448E+02
CGA:  31    -0.117913330255E+04    0.33533E+01   -0.41810E+01  2944   0.140E+03-0.731E+02
CGA:  32    -0.117789398831E+04    0.12393E+01   -0.55341E+01  2944   0.598E+02-0.457E+02
CGA:  33    -0.118398508884E+04   -0.60911E+01   -0.12684E+01  2944   0.556E+01 0.356E+02
CGA:  34    -0.118405281232E+04   -0.67723E-01   -0.69040E-01  2944   0.127E+01-0.250E+00
CGA:  35    -0.118410228104E+04   -0.49469E-01   -0.50138E-01  2944   0.899E+00-0.140E-01
CGA:  36    -0.118418800010E+04   -0.85719E-01   -0.85663E-01  2944   0.172E+01 0.295E-02
CGA:  37    -0.118425888036E+04   -0.70880E-01   -0.75263E-01  2944   0.364E+01-0.520E-01
CGA:  38    -0.118438692449E+04   -0.12804E+00   -0.11994E+00  2944   0.127E+01 0.385E+00
CGA:  39    -0.118442423169E+04   -0.37307E-01   -0.44252E-01  2944   0.938E+00-0.125E+00
CGA:  40    -0.118444816063E+04   -0.23929E-01   -0.24659E-01  2944   0.222E+00-0.184E-01
CGA:  41    -0.118445882162E+04   -0.10661E-01   -0.11011E-01  2944   0.324E+00 0.385E-03
CGA:  42    -0.118447129740E+04   -0.12476E-01   -0.13275E-01  2944   0.135E+00-0.643E-02
CGA:  43    -0.118448207379E+04   -0.10776E-01   -0.10826E-01  2944   0.800E-01-0.334E-02
CGA:  44    -0.118448758103E+04   -0.55072E-02   -0.55154E-02  2944   0.359E-01 0.181E-02
CGA:  45    -0.118449310636E+04   -0.55253E-02   -0.53725E-02  2944   0.265E-01 0.197E-02
CGA:  46    -0.118449593167E+04   -0.28253E-02   -0.28113E-02  2944   0.466E-01 0.356E-03
CGA:  47    -0.118449766054E+04   -0.17289E-02   -0.17262E-02  2944   0.259E-01-0.269E-03
CGA:  48    -0.118450016289E+04   -0.25024E-02   -0.24936E-02  2944   0.137E-01 0.202E-03
CGA:  49    -0.118450196228E+04   -0.17994E-02   -0.17991E-02  2944   0.766E-02-0.242E-04
CGA:  50    -0.118450279351E+04   -0.83122E-03   -0.83196E-03  2944   0.111E-01-0.479E-04
CGA:  51    -0.118450316671E+04   -0.37320E-03   -0.37079E-03  2944   0.574E-02-0.500E-04
CGA:  52    -0.118450374349E+04   -0.57678E-03   -0.57775E-03  2944   0.299E-02-0.473E-04
CGA:  53    -0.118450413702E+04   -0.39353E-03   -0.39335E-03  2944   0.211E-02 0.984E-06
CGA:  54    -0.118450434956E+04   -0.21254E-03   -0.21255E-03  2944   0.245E-02-0.332E-06
CGA:  55    -0.118450453800E+04   -0.18844E-03   -0.18848E-03  2944   0.280E-02 0.837E-05
CGA:  56    -0.118450463605E+04   -0.98047E-04   -0.98409E-04  2944   0.130E-02 0.121E-04
CGA:  57    -0.118450479331E+04   -0.15727E-03   -0.15643E-03  2944   0.970E-03 0.215E-04
CGA:  58    -0.118450490180E+04   -0.10849E-03   -0.10781E-03  2944   0.565E-03 0.249E-04
CGA:  59    -0.118450499502E+04   -0.93220E-04   -0.91206E-04  2944   0.581E-03 0.273E-04
CGA:  60    -0.118450501977E+04   -0.24752E-04   -0.25148E-04  2944   0.583E-03 0.865E-05
CGA:  61    -0.118450506669E+04   -0.46916E-04   -0.47010E-04  2944   0.364E-03 0.172E-04
CGA:  62    -0.118450510931E+04   -0.42622E-04   -0.42141E-04  2944   0.231E-03 0.173E-04
CGA:  63    -0.118450514342E+04   -0.34107E-04   -0.33573E-04  2944   0.620E-03 0.102E-04
SDA:  64    -0.118450516941E+04   -0.25996E-04   -0.26375E-04  2944   0.336E-03 0.784E-05
CGA:  65    -0.118450518009E+04   -0.10673E-04   -0.10630E-04  2944   0.173E-03-0.671E-06
CGA:  66    -0.118450519004E+04   -0.99510E-05   -0.99067E-05  2944   0.163E-03-0.192E-05
CGA:  67    -0.118450520871E+04   -0.18669E-04   -0.18938E-04  2944   0.159E-03-0.775E-05
CGA:  68    -0.118450523054E+04   -0.21832E-04   -0.22553E-04  2944   0.138E-03-0.111E-04
CGA:  69    -0.118450524020E+04   -0.96617E-05   -0.96074E-05  2944   0.195E-03-0.462E-05
   1 F= -.11845052E+04 E0= -.11844854E+04  d E =-.118451E+04  mag=   118.0000
       N       E                     dE             d eps       ncg     rms          ort
SDA:   1    -0.118450947306E+04   -0.42425E-02    0.00000E+00  2944   0.169E+00 0.000E+00
CGA:   2    -0.118451280573E+04   -0.33327E-02   -0.32821E-02  2944   0.205E-01 0.205E-02
CGA:   3    -0.118451410481E+04   -0.12991E-02   -0.13029E-02  2944   0.123E-01 0.535E-04
CGA:   4    -0.118451581281E+04   -0.17080E-02   -0.17059E-02  2944   0.145E-01 0.348E-04
CGA:   5    -0.118451627436E+04   -0.46155E-03   -0.46114E-03  2944   0.632E-02 0.998E-05
CGA:   6    -0.118451656703E+04   -0.29267E-03   -0.29226E-03  2944   0.253E-02-0.375E-05
CGA:   7    -0.118451680670E+04   -0.23966E-03   -0.23983E-03  2944   0.117E-02-0.117E-04
CGA:   8    -0.118451691343E+04   -0.10673E-03   -0.10690E-03  2944   0.141E-02-0.127E-04
CGA:   9    -0.118451695464E+04   -0.41206E-04   -0.41015E-04  2944   0.455E-03-0.430E-05
CGA:  10    -0.118451698957E+04   -0.34932E-04   -0.34930E-04  2944   0.184E-03-0.314E-05
CGA:  11    -0.118451702005E+04   -0.30481E-04   -0.30517E-04  2944   0.224E-03-0.408E-06
CGA:  12    -0.118451702873E+04   -0.86823E-05   -0.87199E-05  2944   0.178E-03 0.819E-06
CGA:  13    -0.118451703982E+04   -0.11091E-04   -0.11110E-04  2944   0.116E-03 0.110E-05
CGA:  14    -0.118451705337E+04   -0.13549E-04   -0.13525E-04  2944   0.129E-03 0.671E-06
CGA:  15    -0.118451706716E+04   -0.13787E-04   -0.13774E-04  2944   0.641E-04 0.536E-06
CGA:  16    -0.118451707648E+04   -0.93199E-05   -0.94563E-05  2944   0.772E-04-0.211E-05
   2 F= -.11845171E+04 E0= -.11844973E+04  d E =-.118363E-01  mag=   118.0000
       N       E                     dE             d eps       ncg     rms          ort
SDA:   1    -0.118266483489E+04    0.18522E+01    0.00000E+00  2944   0.617E+01 0.000E+00
CGA:   2    -0.118326474499E+04   -0.59991E+00   -0.59372E+00  2944   0.145E+02 0.342E+00
CGA:   3    -0.118402484099E+04   -0.76010E+00   -0.76927E+00  2944   0.795E+01-0.124E+00
CGA:   4    -0.118436713277E+04   -0.34229E+00   -0.36621E+00  2944   0.161E+01-0.230E+00
CGA:   5    -0.118454763031E+04   -0.18050E+00   -0.18208E+00  2944   0.206E+01-0.348E-01
CGA:   6    -0.118460728139E+04   -0.59651E-01   -0.61667E-01  2944   0.802E+00-0.559E-01
CGA:   7    -0.118465365195E+04   -0.46371E-01   -0.46047E-01  2944   0.280E+00-0.263E-02
CGA:   8    -0.118468078506E+04   -0.27133E-01   -0.27231E-01  2944   0.155E+00-0.369E-02
CGA:   9    -0.118469184798E+04   -0.11063E-01   -0.11071E-01  2944   0.864E-01 0.439E-03
CGA:  10    -0.118469464013E+04   -0.27922E-02   -0.27850E-02  2944   0.473E-01 0.152E-03
CGA:  11    -0.118469859809E+04   -0.39580E-02   -0.39615E-02  2944   0.290E-01-0.296E-03
CGA:  12    -0.118470136885E+04   -0.27708E-02   -0.27657E-02  2944   0.159E-01 0.206E-03
CGA:  13    -0.118470240716E+04   -0.10383E-02   -0.10398E-02  2944   0.159E-01 0.425E-04
CGA:  14    -0.118470300496E+04   -0.59780E-03   -0.59663E-03  2944   0.827E-02 0.214E-04
CGA:  15    -0.118470390390E+04   -0.89894E-03   -0.89783E-03  2944   0.444E-02 0.279E-04
CGA:  16    -0.118470426952E+04   -0.36561E-03   -0.36571E-03  2944   0.285E-02-0.165E-04
CGA:  17    -0.118470446301E+04   -0.19349E-03   -0.19346E-03  2944   0.426E-02-0.517E-05
CGA:  18    -0.118470464735E+04   -0.18434E-03   -0.18406E-03  2944   0.148E-02-0.712E-05
CGA:  19    -0.118470478849E+04   -0.14114E-03   -0.14125E-03  2944   0.864E-03-0.470E-05
CGA:  20    -0.118470486185E+04   -0.73356E-04   -0.73305E-04  2944   0.576E-03 0.580E-05
CGA:  21    -0.118470488799E+04   -0.26138E-04   -0.26284E-04  2944   0.638E-03 0.425E-05
CGA:  22    -0.118470493987E+04   -0.51878E-04   -0.51823E-04  2944   0.337E-03 0.101E-04
CGA:  23    -0.118470496431E+04   -0.24440E-04   -0.24468E-04  2944   0.145E-03 0.671E-05
CGA:  24    -0.118470498619E+04   -0.21883E-04   -0.21642E-04  2944   0.363E-03 0.338E-05
CGA:  25    -0.118470499874E+04   -0.12551E-04   -0.12656E-04  2944   0.135E-03 0.216E-05
CGA:  26    -0.118470500979E+04   -0.11047E-04   -0.11037E-04  2944   0.992E-04 0.191E-05
CGA:  27    -0.118470502043E+04   -0.10640E-04   -0.10615E-04  2944   0.722E-04 0.887E-06
CGA:  28    -0.118470502394E+04   -0.35128E-05   -0.35247E-05  2944   0.858E-04 0.401E-06
   3 F= -.11847050E+04 E0= -.11846854E+04  d E =-.187947E+00  mag=   118.0000
       N       E                     dE             d eps       ncg     rms          ort
SDA:   1    -0.117819504920E+04    0.65100E+01    0.00000E+00  2944   0.217E+02 0.000E+00
CGA:   2    -0.117959341701E+04   -0.13984E+01   -0.14079E+01  2944   0.469E+02-0.253E-01
CGA:   3    -0.118315839502E+04   -0.35650E+01   -0.35650E+01  2944   0.931E+01-0.110E+00
CGA:   4    -0.118386549885E+04   -0.70710E+00   -0.70681E+00  2944   0.826E+01 0.472E+00
CGA:   5    -0.118435055009E+04   -0.48505E+00   -0.48208E+00  2944   0.805E+01-0.109E+00
CGA:   6    -0.118458827862E+04   -0.23773E+00   -0.23627E+00  2944   0.128E+01-0.240E-01
CGA:   7    -0.118474217192E+04   -0.15389E+00   -0.15210E+00  2944   0.146E+01 0.339E-01
CGA:   8    -0.118479015431E+04   -0.47982E-01   -0.47832E-01  2944   0.714E+00-0.427E-02
CGA:   9    -0.118482483163E+04   -0.34677E-01   -0.34035E-01  2944   0.206E+00 0.411E-03
CGA:  10    -0.118484547802E+04   -0.20646E-01   -0.20323E-01  2944   0.128E+00 0.913E-02
CGA:  11    -0.118485895732E+04   -0.13479E-01   -0.13656E-01  2944   0.835E-01-0.484E-02
CGA:  12    -0.118486381149E+04   -0.48542E-02   -0.48654E-02  2944   0.811E-01 0.267E-03
CGA:  13    -0.118486678053E+04   -0.29690E-02   -0.29488E-02  2944   0.346E-01 0.339E-03
CGA:  14    -0.118487112033E+04   -0.43398E-02   -0.43471E-02  2944   0.253E-01-0.123E-03
CGA:  15    -0.118487280235E+04   -0.16820E-02   -0.16838E-02  2944   0.147E-01 0.961E-04
CGA:  16    -0.118487346526E+04   -0.66291E-03   -0.66407E-03  2944   0.158E-01-0.116E-04
CGA:  17    -0.118487489111E+04   -0.14258E-02   -0.14262E-02  2944   0.700E-02-0.248E-04
CGA:  18    -0.118487543335E+04   -0.54224E-03   -0.54189E-03  2944   0.399E-02 0.471E-04
CGA:  19    -0.118487571495E+04   -0.28161E-03   -0.28160E-03  2944   0.545E-02 0.229E-05
CGA:  20    -0.118487593819E+04   -0.22323E-03   -0.22402E-03  2944   0.231E-02 0.554E-05
CGA:  21    -0.118487617454E+04   -0.23636E-03   -0.23541E-03  2944   0.103E-02 0.296E-04
CGA:  22    -0.118487626427E+04   -0.89729E-04   -0.89639E-04  2944   0.118E-02 0.771E-05
CGA:  23    -0.118487632842E+04   -0.64142E-04   -0.64265E-04  2944   0.141E-02 0.630E-05
CGA:  24    -0.118487641491E+04   -0.86496E-04   -0.86643E-04  2944   0.433E-03 0.114E-04
CGA:  25    -0.118487646901E+04   -0.54100E-04   -0.53991E-04  2944   0.463E-03 0.213E-05
CGA:  26    -0.118487651045E+04   -0.41435E-04   -0.41386E-04  2944   0.639E-03 0.333E-05
CGA:  27    -0.118487653333E+04   -0.22883E-04   -0.22886E-04  2944   0.271E-03 0.132E-05
CGA:  28    -0.118487655584E+04   -0.22514E-04   -0.22512E-04  2944   0.166E-03 0.171E-06
CGA:  29    -0.118487657518E+04   -0.19338E-04   -0.19304E-04  2944   0.130E-03 0.754E-06
CGA:  30    -0.118487658146E+04   -0.62765E-05   -0.62758E-05  2944   0.133E-03-0.735E-07
   4 F= -.11848766E+04 E0= -.11848572E+04  d E =-.171558E+00  mag=   118.0000
       N       E                     dE             d eps       ncg     rms          ort
SDA:   1    -0.117640721687E+04    0.84694E+01    0.00000E+00  2944   0.265E+02 0.000E+00
CGA:   2    -0.117880410105E+04   -0.23969E+01   -0.23915E+01  2944   0.714E+02 0.604E+00
CGA:   3    -0.118258342985E+04   -0.37793E+01   -0.37930E+01  2944   0.104E+02-0.729E+00
CGA:   4    -0.118398670991E+04   -0.14033E+01   -0.14451E+01  2944   0.135E+02-0.572E+00
CGA:   5    -0.118435310279E+04   -0.36639E+00   -0.38052E+00  2944   0.625E+01-0.732E+00
CGA:   6    -0.118462401674E+04   -0.27091E+00   -0.31196E+00  2944   0.221E+01 0.292E+00
CGA:   7    -0.118477107814E+04   -0.14706E+00   -0.14823E+00  2944   0.253E+01 0.411E-01
CGA:   8    -0.118485666267E+04   -0.85585E-01   -0.83440E-01  2944   0.103E+01 0.379E-01
CGA:   9    -0.118490807840E+04   -0.51416E-01   -0.52304E-01  2944   0.323E+00 0.341E-02
CGA:  10    -0.118492359909E+04   -0.15521E-01   -0.15447E-01  2944   0.431E+00-0.477E-04
CGA:  11    -0.118494547107E+04   -0.21872E-01   -0.21918E-01  2944   0.159E+00 0.566E-03
CGA:  12    -0.118495497217E+04   -0.95011E-02   -0.95298E-02  2944   0.193E+00 0.133E-02
CGA:  13    -0.118496109083E+04   -0.61187E-02   -0.60082E-02  2944   0.597E-01 0.217E-02
CGA:  14    -0.118496638302E+04   -0.52922E-02   -0.52835E-02  2944   0.689E-01 0.309E-03
CGA:  15    -0.118496878093E+04   -0.23979E-02   -0.24124E-02  2944   0.474E-01-0.164E-03
CGA:  16    -0.118497178395E+04   -0.30030E-02   -0.30041E-02  2944   0.233E-01 0.329E-03
CGA:  17    -0.118497309269E+04   -0.13087E-02   -0.13093E-02  2944   0.292E-01 0.199E-04
CGA:  18    -0.118497421178E+04   -0.11191E-02   -0.11170E-02  2944   0.123E-01 0.137E-04
CGA:  19    -0.118497533870E+04   -0.11269E-02   -0.11262E-02  2944   0.153E-01 0.205E-04
CGA:  20    -0.118497584052E+04   -0.50182E-03   -0.50213E-03  2944   0.896E-02-0.460E-06
CGA:  21    -0.118497642053E+04   -0.58001E-03   -0.57991E-03  2944   0.360E-02 0.364E-04
CGA:  22    -0.118497661028E+04   -0.18975E-03   -0.18994E-03  2944   0.524E-02 0.128E-04
CGA:  23    -0.118497689359E+04   -0.28331E-03   -0.28342E-03  2944   0.265E-02 0.166E-04
CGA:  24    -0.118497709899E+04   -0.20540E-03   -0.20541E-03  2944   0.236E-02 0.306E-05
CGA:  25    -0.118497716822E+04   -0.69238E-04   -0.69529E-04  2944   0.106E-02 0.254E-05
CGA:  26    -0.118497726582E+04   -0.97598E-04   -0.97339E-04  2944   0.109E-02 0.784E-05
CGA:  27    -0.118497733293E+04   -0.67112E-04   -0.67112E-04  2944   0.147E-02-0.922E-07
CGA:  28    -0.118497738917E+04   -0.56236E-04   -0.56268E-04  2944   0.494E-03 0.505E-06
CGA:  29    -0.118497743648E+04   -0.47309E-04   -0.47166E-04  2944   0.655E-03 0.402E-05
CGA:  30    -0.118497745835E+04   -0.21875E-04   -0.21883E-04  2944   0.411E-03 0.744E-06
CGA:  31    -0.118497749751E+04   -0.39160E-04   -0.39174E-04  2944   0.272E-03-0.431E-06
SDA:  32    -0.118497750904E+04   -0.11524E-04   -0.11530E-04  2944   0.285E-03 0.151E-06
CGA:  33    -0.118497751630E+04   -0.72601E-05   -0.72363E-05  2944   0.111E-03-0.460E-06
CGA:  34    -0.118497752923E+04   -0.12929E-04   -0.13001E-04  2944   0.132E-03-0.131E-05
CGA:  35    -0.118497754303E+04   -0.13800E-04   -0.13935E-04  2944   0.653E-04-0.315E-05
CGA:  36    -0.118497754794E+04   -0.49142E-05   -0.49140E-05  2944   0.361E-04 0.516E-10
   5 F= -.11849775E+04 E0= -.11849583E+04  d E =-.100966E+00  mag=   118.0000
       N       E                     dE             d eps       ncg     rms          ort
SDA:   1    -0.116524886749E+04    0.19729E+02    0.00000E+00  2944   0.591E+02 0.000E+00
CGA:   2    -0.117445368159E+04   -0.92048E+01   -0.84019E+01  2944   0.103E+03 0.106E+02
CGA:   3    -0.117903442423E+04   -0.45807E+01   -0.53726E+01  2944   0.281E+02 0.491E+01
CGA:   4    -0.118139179571E+04   -0.23574E+01   -0.28090E+01  2944   0.459E+02-0.739E+01
CGA:   5    -0.118254421454E+04   -0.11524E+01   -0.11292E+01  2944   0.357E+02-0.477E+00
CGA:   6    -0.118372377081E+04   -0.11796E+01   -0.10387E+01  2944   0.197E+02-0.970E+01
CGA:   7    -0.118389601118E+04   -0.17224E+00   -0.38227E+00  2944   0.127E+02-0.528E+01
CGA:   8    -0.118410760871E+04   -0.21160E+00   -0.18957E+00  2944   0.898E+01 0.561E+00
CGA:   9    -0.118444140666E+04   -0.33380E+00   -0.31039E+00  2944   0.628E+01 0.850E-01
CGA:  10    -0.118454330291E+04   -0.10190E+00   -0.10603E+00  2944   0.354E+01-0.281E+00
CGA:  11    -0.118464104916E+04   -0.97746E-01   -0.10020E+00  2944   0.487E+01-0.669E-01
CGA:  12    -0.118474072289E+04   -0.99674E-01   -0.10354E+00  2944   0.215E+01-0.157E+00
CGA:  13    -0.118477672779E+04   -0.36005E-01   -0.35958E-01  2944   0.134E+01-0.508E-02
CGA:  14    -0.118481635041E+04   -0.39623E-01   -0.40246E-01  2944   0.139E+01-0.111E-01
CGA:  15    -0.118484224885E+04   -0.25898E-01   -0.27805E-01  2944   0.741E+00-0.656E-01
CGA:  16    -0.118486440212E+04   -0.22153E-01   -0.22258E-01  2944   0.992E+00-0.153E-02
CGA:  17    -0.118489375633E+04   -0.29354E-01   -0.30475E-01  2944   0.553E+00-0.736E-02
CGA:  18    -0.118490509673E+04   -0.11340E-01   -0.11320E-01  2944   0.315E+00 0.417E-03
CGA:  19    -0.118491684107E+04   -0.11744E-01   -0.11787E-01  2944   0.260E+00 0.769E-03
CGA:  20    -0.118492236500E+04   -0.55239E-02   -0.55826E-02  2944   0.137E+00-0.161E-02
CGA:  21    -0.118492861031E+04   -0.62453E-02   -0.62461E-02  2944   0.218E+00 0.692E-03
CGA:  22    -0.118493465287E+04   -0.60426E-02   -0.62198E-02  2944   0.889E-01-0.113E-02
CGA:  23    -0.118493774991E+04   -0.30970E-02   -0.31023E-02  2944   0.951E-01 0.943E-04
CGA:  24    -0.118494073243E+04   -0.29825E-02   -0.29833E-02  2944   0.387E-01-0.910E-05
CGA:  25    -0.118494203535E+04   -0.13029E-02   -0.13045E-02  2944   0.449E-01 0.349E-04
CGA:  26    -0.118494407957E+04   -0.20442E-02   -0.20427E-02  2944   0.303E-01 0.499E-03
CGA:  27    -0.118494492460E+04   -0.84503E-03   -0.84532E-03  2944   0.233E-01-0.193E-05
CGA:  28    -0.118494608726E+04   -0.11627E-02   -0.11632E-02  2944   0.181E-01-0.520E-04
CGA:  29    -0.118494654098E+04   -0.45371E-03   -0.45502E-03  2944   0.106E-01-0.219E-05
CGA:  30    -0.118494710180E+04   -0.56082E-03   -0.55966E-03  2944   0.105E-01 0.863E-04
CGA:  31    -0.118494739090E+04   -0.28911E-03   -0.28941E-03  2944   0.654E-02 0.126E-04
SDA:  32    -0.118494780522E+04   -0.41432E-03   -0.41343E-03  2944   0.807E-02 0.381E-04
CGA:  33    -0.118494797644E+04   -0.17122E-03   -0.17150E-03  2944   0.163E-02-0.200E-05
CGA:  34    -0.118494819230E+04   -0.21586E-03   -0.21475E-03  2944   0.272E-02 0.135E-04
CGA:  35    -0.118494848857E+04   -0.29626E-03   -0.29612E-03  2944   0.190E-02 0.217E-05
CGA:  36    -0.118494865405E+04   -0.16549E-03   -0.16499E-03  2944   0.136E-02 0.129E-04
CGA:  37    -0.118494870989E+04   -0.55839E-04   -0.55881E-04  2944   0.108E-02 0.329E-05
CGA:  38    -0.118494877962E+04   -0.69724E-04   -0.69703E-04  2944   0.549E-03 0.142E-05
CGA:  39    -0.118494887481E+04   -0.95187E-04   -0.94908E-04  2944   0.618E-03 0.246E-05
CGA:  40    -0.118494893607E+04   -0.61269E-04   -0.61262E-04  2944   0.274E-03 0.125E-06
CGA:  41    -0.118494895029E+04   -0.14215E-04   -0.14223E-04  2944   0.382E-03 0.908E-06
CGA:  42    -0.118494897982E+04   -0.29533E-04   -0.29524E-04  2944   0.245E-03 0.579E-06
CGA:  43    -0.118494901455E+04   -0.34725E-04   -0.34618E-04  2944   0.151E-03 0.130E-05
CGA:  44    -0.118494902543E+04   -0.10887E-04   -0.10880E-04  2944   0.217E-03 0.802E-06
CGA:  45    -0.118494903803E+04   -0.12593E-04   -0.12601E-04  2944   0.231E-03 0.109E-05
CGA:  46    -0.118494905485E+04   -0.16825E-04   -0.16828E-04  2944   0.985E-04-0.251E-06
CGA:  47    -0.118494906479E+04   -0.99372E-05   -0.99180E-05  2944   0.667E-04 0.513E-06
   6 F= -.11849491E+04 E0= -.11849296E+04  d E =0.284832E-01  mag=   118.0000
       N       E                     dE             d eps       ncg     rms          ort
SDA:   1    -0.118288966201E+04    0.20594E+01    0.00000E+00  2944   0.602E+01 0.000E+00
CGA:   2    -0.118400775155E+04   -0.11181E+01   -0.10431E+01  2944   0.613E+01 0.786E+00
CGA:   3    -0.118458808018E+04   -0.58033E+00   -0.58595E+00  2944   0.399E+01-0.281E+00
CGA:   4    -0.118483249720E+04   -0.24442E+00   -0.25033E+00  2944   0.152E+01 0.303E+00
CGA:   5    -0.118493500699E+04   -0.10251E+00   -0.10303E+00  2944   0.126E+01 0.166E-01
CGA:   6    -0.118498846119E+04   -0.53454E-01   -0.52863E-01  2944   0.638E+00 0.718E-02
CGA:   7    -0.118502038930E+04   -0.31928E-01   -0.32112E-01  2944   0.359E+00-0.261E-04
CGA:   8    -0.118504164106E+04   -0.21252E-01   -0.21420E-01  2944   0.124E+00 0.550E-02
CGA:   9    -0.118505008525E+04   -0.84442E-02   -0.84426E-02  2944   0.115E+00-0.321E-03
CGA:  10    -0.118505509687E+04   -0.50116E-02   -0.49632E-02  2944   0.651E-01 0.191E-03
CGA:  11    -0.118505807706E+04   -0.29802E-02   -0.29709E-02  2944   0.323E-01-0.100E-04
CGA:  12    -0.118506079631E+04   -0.27193E-02   -0.27143E-02  2944   0.178E-01 0.208E-03
CGA:  13    -0.118506192751E+04   -0.11312E-02   -0.11317E-02  2944   0.194E-01 0.547E-04
CGA:  14    -0.118506286855E+04   -0.94104E-03   -0.94226E-03  2944   0.136E-01 0.142E-04
CGA:  15    -0.118506351691E+04   -0.64836E-03   -0.64835E-03  2944   0.567E-02 0.286E-06
CGA:  16    -0.118506401344E+04   -0.49653E-03   -0.49624E-03  2944   0.425E-02 0.108E-04
CGA:  17    -0.118506425132E+04   -0.23788E-03   -0.23787E-03  2944   0.423E-02 0.297E-05
CGA:  18    -0.118506445705E+04   -0.20573E-03   -0.20585E-03  2944   0.261E-02 0.263E-05
CGA:  19    -0.118506459541E+04   -0.13836E-03   -0.13831E-03  2944   0.113E-02-0.164E-05
CGA:  20    -0.118506470199E+04   -0.10658E-03   -0.10653E-03  2944   0.862E-03 0.141E-05
CGA:  21    -0.118506474522E+04   -0.43226E-04   -0.43242E-04  2944   0.735E-03 0.827E-06
CGA:  22    -0.118506478327E+04   -0.38046E-04   -0.38060E-04  2944   0.526E-03 0.995E-06
CGA:  23    -0.118506481298E+04   -0.29715E-04   -0.29696E-04  2944   0.207E-03-0.116E-05
CGA:  24    -0.118506483481E+04   -0.21829E-04   -0.21805E-04  2944   0.215E-03 0.557E-06
CGA:  25    -0.118506484703E+04   -0.12224E-04   -0.12241E-04  2944   0.197E-03 0.169E-05
CGA:  26    -0.118506485696E+04   -0.99303E-05   -0.99492E-05  2944   0.156E-03 0.114E-05
   7 F= -.11850649E+04 E0= -.11850455E+04  d E =-.115792E+00  mag=   118.0000
       N       E                     dE             d eps       ncg     rms          ort
SDA:   1    -0.118457167013E+04    0.49318E+00    0.00000E+00  2944   0.139E+01 0.000E+00
CGA:   2    -0.118487581612E+04   -0.30415E+00   -0.30503E+00  2944   0.197E+01-0.539E-02
CGA:   3    -0.118496524994E+04   -0.89434E-01   -0.87861E-01  2944   0.988E+00-0.166E-02
CGA:   4    -0.118500660245E+04   -0.41353E-01   -0.40896E-01  2944   0.627E+00 0.246E-02
CGA:   5    -0.118506008537E+04   -0.53483E-01   -0.53629E-01  2944   0.163E+00-0.629E-02
CGA:   6    -0.118507076978E+04   -0.10684E-01   -0.10668E-01  2944   0.172E+00-0.162E-02
CGA:   7    -0.118507790508E+04   -0.71353E-02   -0.71483E-02  2944   0.857E-01-0.560E-04
CGA:   8    -0.118508360353E+04   -0.56984E-02   -0.56976E-02  2944   0.196E-01-0.150E-03
CGA:   9    -0.118508496638E+04   -0.13629E-02   -0.13628E-02  2944   0.251E-01 0.552E-04
CGA:  10    -0.118508599684E+04   -0.10305E-02   -0.10263E-02  2944   0.862E-02 0.206E-04
CGA:  11    -0.118508686385E+04   -0.86701E-03   -0.86677E-03  2944   0.579E-02 0.363E-05
CGA:  12    -0.118508712431E+04   -0.26046E-03   -0.26056E-03  2944   0.417E-02-0.370E-05
CGA:  13    -0.118508735678E+04   -0.23247E-03   -0.23243E-03  2944   0.288E-02-0.253E-05
CGA:  14    -0.118508760740E+04   -0.25062E-03   -0.25088E-03  2944   0.143E-02-0.106E-04
CGA:  15    -0.118508767664E+04   -0.69239E-04   -0.69295E-04  2944   0.146E-02 0.195E-05
CGA:  16    -0.118508777226E+04   -0.95619E-04   -0.95627E-04  2944   0.712E-03 0.510E-05
CGA:  17    -0.118508783307E+04   -0.60818E-04   -0.60735E-04  2944   0.556E-03 0.470E-05
CGA:  18    -0.118508785743E+04   -0.24352E-04   -0.24387E-04  2944   0.474E-03 0.147E-05
CGA:  19    -0.118508789647E+04   -0.39046E-04   -0.39002E-04  2944   0.159E-03 0.296E-05
CGA:  20    -0.118508790747E+04   -0.10999E-04   -0.10999E-04  2944   0.206E-03-0.903E-06
CGA:  21    -0.118508791831E+04   -0.10833E-04   -0.10819E-04  2944   0.142E-03-0.105E-05
CGA:  22    -0.118508792827E+04   -0.99680E-05   -0.99728E-05  2944   0.640E-04-0.126E-05
   8 F= -.11850879E+04 E0= -.11850685E+04  d E =-.230713E-01  mag=   118.0000
       N       E                     dE             d eps       ncg     rms          ort
SDA:   1    -0.118412006318E+04    0.96786E+00    0.00000E+00  2944   0.453E+01 0.000E+00
CGA:   2    -0.118428480845E+04   -0.16475E+00   -0.17137E+00  2944   0.459E+01-0.101E+00
CGA:   3    -0.118482897730E+04   -0.54417E+00   -0.54674E+00  2944   0.128E+01-0.446E-01
CGA:   4    -0.118498468629E+04   -0.15571E+00   -0.15368E+00  2944   0.135E+01 0.366E-01
CGA:   5    -0.118504210986E+04   -0.57424E-01   -0.56665E-01  2944   0.653E+00 0.540E-02
CGA:   6    -0.118506661969E+04   -0.24510E-01   -0.24326E-01  2944   0.210E+00 0.110E-02
CGA:   7    -0.118508949519E+04   -0.22875E-01   -0.22918E-01  2944   0.126E+00-0.869E-03
CGA:   8    -0.118509710853E+04   -0.76133E-02   -0.76345E-02  2944   0.840E-01 0.829E-03
CGA:   9    -0.118509960297E+04   -0.24944E-02   -0.24809E-02  2944   0.210E-01 0.305E-03
CGA:  10    -0.118510258179E+04   -0.29788E-02   -0.29689E-02  2944   0.164E-01 0.137E-03
CGA:  11    -0.118510337144E+04   -0.78965E-03   -0.78624E-03  2944   0.102E-01 0.443E-05
CGA:  12    -0.118510379086E+04   -0.41942E-03   -0.42034E-03  2944   0.580E-02-0.399E-05
CGA:  13    -0.118510443723E+04   -0.64637E-03   -0.64669E-03  2944   0.321E-02-0.792E-05
CGA:  14    -0.118510464092E+04   -0.20369E-03   -0.20367E-03  2944   0.307E-02-0.236E-06
CGA:  15    -0.118510477002E+04   -0.12910E-03   -0.12899E-03  2944   0.173E-02 0.159E-05
CGA:  16    -0.118510491462E+04   -0.14459E-03   -0.14455E-03  2944   0.940E-03 0.269E-05
CGA:  17    -0.118510500808E+04   -0.93463E-04   -0.93376E-04  2944   0.136E-02 0.592E-05
CGA:  18    -0.118510505453E+04   -0.46451E-04   -0.46585E-04  2944   0.447E-03 0.315E-05
CGA:  19    -0.118510509559E+04   -0.41064E-04   -0.41018E-04  2944   0.309E-03 0.183E-05
CGA:  20    -0.118510512052E+04   -0.24930E-04   -0.24903E-04  2944   0.420E-03 0.219E-05
CGA:  21    -0.118510513818E+04   -0.17653E-04   -0.17678E-04  2944   0.190E-03 0.130E-05
CGA:  22    -0.118510515143E+04   -0.13255E-04   -0.13255E-04  2944   0.863E-04 0.582E-07
CGA:  23    -0.118510515915E+04   -0.77190E-05   -0.77312E-05  2944   0.143E-03-0.528E-06
   9 F= -.11851052E+04 E0= -.11850856E+04  d E =-.172309E-01  mag=   118.0000
       N       E                     dE             d eps       ncg     rms          ort
SDA:   1    -0.118191908076E+04    0.31861E+01    0.00000E+00  2944   0.114E+02 0.000E+00
CGA:   2    -0.118263229283E+04   -0.71321E+00   -0.71799E+00  2944   0.199E+02 0.227E+00
CGA:   3    -0.118401467610E+04   -0.13824E+01   -0.13818E+01  2944   0.739E+01-0.516E+00
CGA:   4    -0.118449267771E+04   -0.47800E+00   -0.47765E+00  2944   0.522E+01-0.729E-01
CGA:   5    -0.118476570831E+04   -0.27303E+00   -0.27218E+00  2944   0.418E+01-0.198E-01
CGA:   6    -0.118496844697E+04   -0.20274E+00   -0.19586E+00  2944   0.101E+01-0.365E-01
CGA:   7    -0.118502828589E+04   -0.59839E-01   -0.59493E-01  2944   0.830E+00-0.167E-01
CGA:   8    -0.118506270830E+04   -0.34422E-01   -0.34507E-01  2944   0.464E+00-0.460E-03
CGA:   9    -0.118509733598E+04   -0.34628E-01   -0.34638E-01  2944   0.113E+00-0.664E-03
CGA:  10    -0.118510260987E+04   -0.52739E-02   -0.52919E-02  2944   0.119E+00 0.147E-03
CGA:  11    -0.118511011775E+04   -0.75079E-02   -0.75053E-02  2944   0.461E-01-0.584E-03
CGA:  12    -0.118511362599E+04   -0.35082E-02   -0.35023E-02  2944   0.401E-01 0.340E-03
CGA:  13    -0.118511505166E+04   -0.14257E-02   -0.14243E-02  2944   0.174E-01 0.207E-04
CGA:  14    -0.118511656144E+04   -0.15098E-02   -0.15089E-02  2944   0.147E-01 0.299E-04
CGA:  15    -0.118511743958E+04   -0.87814E-03   -0.87825E-03  2944   0.128E-01 0.130E-04
CGA:  16    -0.118511796529E+04   -0.52571E-03   -0.52602E-03  2944   0.502E-02 0.664E-05
CGA:  17    -0.118511839917E+04   -0.43388E-03   -0.43368E-03  2944   0.482E-02 0.673E-05
CGA:  18    -0.118511865964E+04   -0.26047E-03   -0.26058E-03  2944   0.488E-02 0.557E-05
CGA:  19    -0.118511893993E+04   -0.28029E-03   -0.28033E-03  2944   0.165E-02 0.498E-05
CGA:  20    -0.118511906618E+04   -0.12625E-03   -0.12612E-03  2944   0.225E-02 0.832E-05
CGA:  21    -0.118511917082E+04   -0.10464E-03   -0.10471E-03  2944   0.119E-02 0.331E-05
CGA:  22    -0.118511926663E+04   -0.95812E-04   -0.95655E-04  2944   0.806E-03 0.860E-05
CGA:  23    -0.118511930646E+04   -0.39830E-04   -0.39860E-04  2944   0.753E-03 0.213E-05
CGA:  24    -0.118511935285E+04   -0.46389E-04   -0.46396E-04  2944   0.290E-03 0.311E-05
CGA:  25    -0.118511937759E+04   -0.24744E-04   -0.24728E-04  2944   0.487E-03 0.718E-06
CGA:  26    -0.118511939967E+04   -0.22079E-04   -0.22097E-04  2944   0.190E-03 0.769E-06
CGA:  27    -0.118511941363E+04   -0.13955E-04   -0.13960E-04  2944   0.145E-03-0.530E-06
CGA:  28    -0.118511942172E+04   -0.80946E-05   -0.80972E-05  2944   0.157E-03 0.278E-06
  10 F= -.11851194E+04 E0= -.11850996E+04  d E =-.142626E-01  mag=   118.0000
       N       E                     dE             d eps       ncg     rms          ort
SDA:   1    -0.116032230900E+04    0.24797E+02    0.00000E+00  2944   0.656E+02 0.000E+00
CGA:   2    -0.116855675186E+04   -0.82344E+01   -0.77100E+01  2944   0.112E+03 0.131E+02
CGA:   3    -0.117519108879E+04   -0.66343E+01   -0.65973E+01  2944   0.847E+02-0.878E+01
CGA:   4    -0.117966627976E+04   -0.44752E+01   -0.44262E+01  2944   0.250E+02-0.429E+01
CGA:   5    -0.118044335104E+04   -0.77707E+00   -0.75434E+00  2944   0.270E+02-0.300E+00
CGA:   6    -0.118148566765E+04   -0.10423E+01   -0.88089E+00  2944   0.123E+02 0.103E+01
CGA:   7    -0.118187920414E+04   -0.39354E+00   -0.40865E+00  2944   0.173E+02-0.388E+00
CGA:   8    -0.118245095324E+04   -0.57175E+00   -0.61050E+00  2944   0.113E+02-0.454E+00
CGA:   9    -0.118262767040E+04   -0.17672E+00   -0.17334E+00  2944   0.366E+01-0.240E-01
CGA:  10    -0.118276330165E+04   -0.13563E+00   -0.13529E+00  2944   0.361E+01-0.329E-01
CGA:  11    -0.118282403210E+04   -0.60730E-01   -0.59837E-01  2944   0.188E+01 0.159E-01
CGA:  12    -0.118289459658E+04   -0.70564E-01   -0.70920E-01  2944   0.336E+01-0.721E-03
CGA:  13    -0.118297215202E+04   -0.77555E-01   -0.84601E-01  2944   0.167E+01-0.158E+00
CGA:  14    -0.118300278610E+04   -0.30634E-01   -0.31840E-01  2944   0.104E+01-0.462E-01
CGA:  15    -0.118303538799E+04   -0.32602E-01   -0.34083E-01  2944   0.587E+00-0.110E-02
CGA:  16    -0.118304822632E+04   -0.12838E-01   -0.12978E-01  2944   0.421E+00-0.389E-02
CGA:  17    -0.118306994443E+04   -0.21718E-01   -0.21792E-01  2944   0.604E+00-0.104E-01
CGA:  18    -0.118308372198E+04   -0.13778E-01   -0.14404E-01  2944   0.350E+00-0.125E-01
CGA:  19    -0.118309777144E+04   -0.14049E-01   -0.14270E-01  2944   0.347E+00 0.154E-01
CGA:  20    -0.118310696768E+04   -0.91962E-02   -0.93372E-02  2944   0.119E+00-0.201E-02
CGA:  21    -0.118311340597E+04   -0.64383E-02   -0.64452E-02  2944   0.105E+00-0.507E-03
CGA:  22    -0.118311662171E+04   -0.32157E-02   -0.32563E-02  2944   0.610E-01 0.516E-04
CGA:  23    -0.118312073988E+04   -0.41182E-02   -0.40779E-02  2944   0.484E-01 0.153E-02
CGA:  24    -0.118312286362E+04   -0.21237E-02   -0.21243E-02  2944   0.490E-01 0.589E-04
CGA:  25    -0.118312508325E+04   -0.22196E-02   -0.22208E-02  2944   0.154E-01 0.583E-03
CGA:  26    -0.118312576763E+04   -0.68438E-03   -0.68475E-03  2944   0.162E-01 0.120E-03
CGA:  27    -0.118312647793E+04   -0.71029E-03   -0.71043E-03  2944   0.668E-02 0.268E-04
CGA:  28    -0.118312700609E+04   -0.52817E-03   -0.52804E-03  2944   0.110E-01 0.351E-05
CGA:  29    -0.118312738287E+04   -0.37678E-03   -0.37859E-03  2944   0.397E-02 0.200E-04
CGA:  30    -0.118312769474E+04   -0.31187E-03   -0.31130E-03  2944   0.347E-02 0.171E-04
CGA:  31    -0.118312780355E+04   -0.10881E-03   -0.10890E-03  2944   0.194E-02 0.369E-05
SDA:  32    -0.118312798827E+04   -0.18471E-03   -0.18452E-03  2944   0.225E-02 0.392E-05
CGA:  33    -0.118312806414E+04   -0.75877E-04   -0.76013E-04  2944   0.929E-03 0.776E-06
CGA:  34    -0.118312811994E+04   -0.55794E-04   -0.55797E-04  2944   0.112E-02-0.804E-08
CGA:  35    -0.118312825480E+04   -0.13486E-03   -0.13502E-03  2944   0.700E-03-0.236E-05
CGA:  36    -0.118312834624E+04   -0.91448E-04   -0.91836E-04  2944   0.572E-03-0.550E-05
CGA:  37    -0.118312837242E+04   -0.26175E-04   -0.26182E-04  2944   0.523E-03 0.295E-06
CGA:  38    -0.118312840645E+04   -0.34034E-04   -0.34030E-04  2944   0.367E-03 0.157E-06
CGA:  39    -0.118312844984E+04   -0.43390E-04   -0.43443E-04  2944   0.200E-03-0.978E-06
CGA:  40    -0.118312847537E+04   -0.25527E-04   -0.25687E-04  2944   0.212E-03-0.244E-05
CGA:  41    -0.118312848582E+04   -0.10452E-04   -0.10432E-04  2944   0.124E-03-0.151E-05
CGA:  42    -0.118312849140E+04   -0.55803E-05   -0.55669E-05  2944   0.977E-04-0.631E-06
CGA:  43    -0.118312850321E+04   -0.11808E-04   -0.11834E-04  2944   0.535E-04-0.452E-06
CGA:  44    -0.118312850846E+04   -0.52531E-05   -0.52559E-05  2944   0.554E-04-0.125E-06
  11 F= -.11831285E+04 E0= -.11831091E+04  d E =0.199091E+01  mag=   118.0000
       N       E                     dE             d eps       ncg     rms          ort
SDA:   1    -0.117645602029E+04    0.66725E+01    0.00000E+00  2944   0.265E+02 0.000E+00
CGA:   2    -0.117913888197E+04   -0.26829E+01   -0.24745E+01  2944   0.367E+02 0.655E+01
CGA:   3    -0.118142633969E+04   -0.22875E+01   -0.23824E+01  2944   0.367E+02 0.126E+01
CGA:   4    -0.118350182923E+04   -0.20755E+01   -0.18970E+01  2944   0.163E+02-0.459E+01
CGA:   5    -0.118386065948E+04   -0.35883E+00   -0.35547E+00  2944   0.763E+01-0.175E+00
CGA:   6    -0.118421747100E+04   -0.35681E+00   -0.34973E+00  2944   0.381E+01-0.152E+00
CGA:   7    -0.118442499258E+04   -0.20752E+00   -0.20621E+00  2944   0.597E+01-0.680E-01
CGA:   8    -0.118461286877E+04   -0.18788E+00   -0.20354E+00  2944   0.210E+01-0.216E+00
CGA:   9    -0.118468547765E+04   -0.72609E-01   -0.74557E-01  2944   0.179E+01-0.194E-01
CGA:  10    -0.118473354079E+04   -0.48063E-01   -0.44622E-01  2944   0.406E+00 0.729E-01
CGA:  11    -0.118475332862E+04   -0.19788E-01   -0.19548E-01  2944   0.674E+00-0.496E-02
CGA:  12    -0.118477897449E+04   -0.25646E-01   -0.26054E-01  2944   0.515E+00 0.575E-03
CGA:  13    -0.118479596418E+04   -0.16990E-01   -0.18224E-01  2944   0.500E+00-0.484E-02
CGA:  14    -0.118481203605E+04   -0.16072E-01   -0.16072E-01  2944   0.101E+00 0.457E-03
CGA:  15    -0.118481878906E+04   -0.67530E-02   -0.68004E-02  2944   0.160E+00-0.248E-02
CGA:  16    -0.118482425822E+04   -0.54692E-02   -0.55380E-02  2944   0.844E-01-0.130E-03
CGA:  17    -0.118482954598E+04   -0.52878E-02   -0.52254E-02  2944   0.674E-01 0.483E-02
CGA:  18    -0.118483155248E+04   -0.20065E-02   -0.20065E-02  2944   0.309E-01-0.178E-04
CGA:  19    -0.118483434024E+04   -0.27878E-02   -0.28136E-02  2944   0.244E-01-0.627E-03
CGA:  20    -0.118483523879E+04   -0.89854E-03   -0.90126E-03  2944   0.188E-01 0.146E-04
CGA:  21    -0.118483615948E+04   -0.92070E-03   -0.92097E-03  2944   0.822E-02 0.306E-04
CGA:  22    -0.118483681723E+04   -0.65775E-03   -0.65828E-03  2944   0.104E-01-0.146E-04
CGA:  23    -0.118483711848E+04   -0.30125E-03   -0.30242E-03  2944   0.282E-02-0.808E-05
CGA:  24    -0.118483733158E+04   -0.21310E-03   -0.21234E-03  2944   0.211E-02 0.304E-04
CGA:  25    -0.118483743746E+04   -0.10589E-03   -0.10594E-03  2944   0.266E-02 0.837E-05
CGA:  26    -0.118483758914E+04   -0.15167E-03   -0.15165E-03  2944   0.714E-03 0.873E-05
CGA:  27    -0.118483763726E+04   -0.48129E-04   -0.48065E-04  2944   0.907E-03 0.478E-05
CGA:  28    -0.118483767174E+04   -0.34472E-04   -0.34552E-04  2944   0.463E-03 0.355E-05
CGA:  29    -0.118483771480E+04   -0.43062E-04   -0.42957E-04  2944   0.436E-03 0.259E-05
CGA:  30    -0.118483773658E+04   -0.21782E-04   -0.21792E-04  2944   0.517E-03 0.134E-05
CGA:  31    -0.118483776172E+04   -0.25139E-04   -0.25165E-04  2944   0.150E-03 0.272E-05
SDA:  32    -0.118483777404E+04   -0.12317E-04   -0.12308E-04  2944   0.286E-03 0.212E-06
CGA:  33    -0.118483778054E+04   -0.64998E-05   -0.64911E-05  2944   0.701E-04-0.267E-06
CGA:  34    -0.118483779108E+04   -0.10547E-04   -0.10576E-04  2944   0.964E-04-0.390E-06
CGA:  35    -0.118483780035E+04   -0.92645E-05   -0.93006E-05  2944   0.598E-04-0.105E-05
  12 F= -.11848378E+04 E0= -.11848188E+04  d E =-.170929E+01  mag=   118.0000
       N       E                     dE             d eps       ncg     rms          ort
SDA:   1    -0.118380528992E+04    0.10325E+01    0.00000E+00  2944   0.371E+01 0.000E+00
CGA:   2    -0.118421790400E+04   -0.41261E+00   -0.39988E+00  2944   0.701E+01 0.291E+00
CGA:   3    -0.118458726619E+04   -0.36936E+00   -0.37293E+00  2944   0.628E+01 0.113E-01
CGA:   4    -0.118490059671E+04   -0.31333E+00   -0.31135E+00  2944   0.888E+00-0.398E-01
CGA:   5    -0.118497017128E+04   -0.69575E-01   -0.68703E-01  2944   0.468E+00 0.446E-01
CGA:   6    -0.118501843029E+04   -0.48259E-01   -0.48094E-01  2944   0.734E+00 0.459E-02
CGA:   7    -0.118504145468E+04   -0.23024E-01   -0.23314E-01  2944   0.163E+00-0.524E-02
CGA:   8    -0.118505260129E+04   -0.11147E-01   -0.11142E-01  2944   0.511E-01 0.940E-03
CGA:   9    -0.118505842119E+04   -0.58199E-02   -0.58191E-02  2944   0.437E-01 0.182E-04
CGA:  10    -0.118506184227E+04   -0.34211E-02   -0.34235E-02  2944   0.347E-01-0.145E-03
CGA:  11    -0.118506294202E+04   -0.10998E-02   -0.11004E-02  2944   0.148E-01-0.515E-05
CGA:  12    -0.118506429136E+04   -0.13493E-02   -0.13515E-02  2944   0.970E-02-0.670E-04
CGA:  13    -0.118506537073E+04   -0.10794E-02   -0.10748E-02  2944   0.469E-02 0.949E-04
CGA:  14    -0.118506581010E+04   -0.43937E-03   -0.43944E-03  2944   0.300E-02-0.150E-05
CGA:  15    -0.118506600163E+04   -0.19153E-03   -0.19152E-03  2944   0.382E-02 0.422E-05
CGA:  16    -0.118506617113E+04   -0.16951E-03   -0.16978E-03  2944   0.179E-02 0.709E-05
CGA:  17    -0.118506634905E+04   -0.17792E-03   -0.17768E-03  2944   0.652E-03 0.819E-05
CGA:  18    -0.118506640576E+04   -0.56708E-04   -0.56613E-04  2944   0.453E-03 0.552E-05
CGA:  19    -0.118506643710E+04   -0.31340E-04   -0.31348E-04  2944   0.639E-03 0.179E-05
CGA:  20    -0.118506646481E+04   -0.27709E-04   -0.27720E-04  2944   0.237E-03 0.432E-06
CGA:  21    -0.118506648811E+04   -0.23299E-04   -0.23258E-04  2944   0.873E-04 0.137E-05
CGA:  22    -0.118506649854E+04   -0.10431E-04   -0.10455E-04  2944   0.122E-03-0.558E-06
CGA:  23    -0.118506650539E+04   -0.68548E-05   -0.68570E-05  2944   0.130E-03 0.118E-06
  13 F= -.11850665E+04 E0= -.11850473E+04  d E =-.228705E+00  mag=   118.0000
       N       E                     dE             d eps       ncg     rms          ort
SDA:   1    -0.118472841563E+04    0.33808E+00    0.00000E+00  2944   0.108E+01 0.000E+00
CGA:   2    -0.118486308975E+04   -0.13467E+00   -0.13337E+00  2944   0.302E+01 0.251E-01
CGA:   3    -0.118499682111E+04   -0.13373E+00   -0.13425E+00  2944   0.155E+01-0.989E-02
CGA:   4    -0.118506801781E+04   -0.71197E-01   -0.70892E-01  2944   0.245E+00-0.193E-02
CGA:   5    -0.118509225834E+04   -0.24241E-01   -0.23946E-01  2944   0.226E+00 0.845E-02
CGA:   6    -0.118510305666E+04   -0.10798E-01   -0.10779E-01  2944   0.208E+00 0.145E-03
CGA:   7    -0.118511408451E+04   -0.11028E-01   -0.11018E-01  2944   0.395E-01 0.779E-04
CGA:   8    -0.118511737077E+04   -0.32863E-02   -0.32856E-02  2944   0.292E-01 0.531E-04
CGA:   9    -0.118511847292E+04   -0.11022E-02   -0.11034E-02  2944   0.193E-01 0.514E-05
CGA:  10    -0.118511999242E+04   -0.15195E-02   -0.15205E-02  2944   0.835E-02-0.666E-04
CGA:  11    -0.118512055589E+04   -0.56347E-03   -0.56360E-03  2944   0.721E-02 0.280E-04
CGA:  12    -0.118512083964E+04   -0.28376E-03   -0.28345E-03  2944   0.430E-02 0.239E-06
CGA:  13    -0.118512127450E+04   -0.43486E-03   -0.43449E-03  2944   0.252E-02 0.893E-05
CGA:  14    -0.118512141378E+04   -0.13928E-03   -0.13928E-03  2944   0.229E-02 0.217E-05
CGA:  15    -0.118512151528E+04   -0.10150E-03   -0.10166E-03  2944   0.111E-02 0.530E-05
CGA:  16    -0.118512160791E+04   -0.92628E-04   -0.92546E-04  2944   0.700E-03 0.581E-05
CGA:  17    -0.118512165178E+04   -0.43865E-04   -0.43905E-04  2944   0.861E-03 0.649E-05
CGA:  18    -0.118512169404E+04   -0.42264E-04   -0.42404E-04  2944   0.370E-03 0.712E-05
CGA:  19    -0.118512172083E+04   -0.26790E-04   -0.26770E-04  2944   0.155E-03 0.460E-05
CGA:  20    -0.118512172814E+04   -0.73124E-05   -0.73265E-05  2944   0.174E-03 0.633E-06
CGA:  21    -0.118512174362E+04   -0.15482E-04   -0.15455E-04  2944   0.659E-04 0.121E-05
CGA:  22    -0.118512174874E+04   -0.51148E-05   -0.51206E-05  2944   0.103E-03-0.703E-06
  14 F= -.11851217E+04 E0= -.11851023E+04  d E =-.552433E-01  mag=   118.0000
       N       E                     dE             d eps       ncg     rms          ort
SDA:   1    -0.118502404156E+04    0.97702E-01    0.00000E+00  2944   0.668E+00 0.000E+00
CGA:   2    -0.118504357783E+04   -0.19536E-01   -0.19813E-01  2944   0.424E+00-0.732E-02
CGA:   3    -0.118509247932E+04   -0.48901E-01   -0.48703E-01  2944   0.475E+00 0.371E-02
CGA:   4    -0.118512442070E+04   -0.31941E-01   -0.31939E-01  2944   0.669E-01-0.154E-02
CGA:   5    -0.118513107348E+04   -0.66528E-02   -0.66484E-02  2944   0.725E-01 0.131E-03
CGA:   6    -0.118513548021E+04   -0.44067E-02   -0.44095E-02  2944   0.675E-01 0.199E-03
CGA:   7    -0.118513759597E+04   -0.21158E-02   -0.20882E-02  2944   0.108E-01 0.640E-03
CGA:   8    -0.118513883491E+04   -0.12389E-02   -0.12382E-02  2944   0.524E-02 0.185E-04
CGA:   9    -0.118513931746E+04   -0.48254E-03   -0.48196E-03  2944   0.235E-02 0.230E-04
CGA:  10    -0.118513952487E+04   -0.20742E-03   -0.20735E-03  2944   0.332E-02 0.288E-05
CGA:  11    -0.118513962922E+04   -0.10435E-03   -0.10443E-03  2944   0.101E-02-0.267E-06
CGA:  12    -0.118513975297E+04   -0.12375E-03   -0.12368E-03  2944   0.667E-03 0.139E-05
CGA:  13    -0.118513980893E+04   -0.55952E-04   -0.55942E-04  2944   0.380E-03 0.810E-06
CGA:  14    -0.118513984271E+04   -0.33785E-04   -0.33699E-04  2944   0.296E-03 0.502E-05
CGA:  15    -0.118513985379E+04   -0.11080E-04   -0.11151E-04  2944   0.225E-03 0.207E-05
CGA:  16    -0.118513987344E+04   -0.19648E-04   -0.19566E-04  2944   0.134E-03 0.549E-05
CGA:  17    -0.118513988459E+04   -0.11153E-04   -0.11120E-04  2944   0.414E-04 0.371E-05
CGA:  18    -0.118513989098E+04   -0.63864E-05   -0.62819E-05  2944   0.336E-04 0.139E-05
  15 F= -.11851399E+04 E0= -.11851204E+04  d E =-.181422E-01  mag=   118.0000
       N       E                     dE             d eps       ncg     rms          ort
SDA:   1    -0.118500987370E+04    0.13001E+00    0.00000E+00  2944   0.363E+00 0.000E+00
CGA:   2    -0.118508145978E+04   -0.71586E-01   -0.70927E-01  2944   0.852E+00 0.643E-02
CGA:   3    -0.118511433254E+04   -0.32873E-01   -0.32004E-01  2944   0.357E+00 0.118E-01
CGA:   4    -0.118512782252E+04   -0.13490E-01   -0.13672E-01  2944   0.929E-01-0.298E-02
CGA:   5    -0.118514049814E+04   -0.12676E-01   -0.12652E-01  2944   0.555E-01 0.374E-03
CGA:   6    -0.118514451862E+04   -0.40205E-02   -0.40102E-02  2944   0.210E-01-0.439E-03
CGA:   7    -0.118514580377E+04   -0.12851E-02   -0.12866E-02  2944   0.267E-01 0.411E-04
CGA:   8    -0.118514686643E+04   -0.10627E-02   -0.10616E-02  2944   0.644E-02 0.469E-04
CGA:   9    -0.118514738180E+04   -0.51537E-03   -0.51527E-03  2944   0.246E-02 0.234E-04
CGA:  10    -0.118514761320E+04   -0.23141E-03   -0.23139E-03  2944   0.370E-02 0.365E-06
CGA:  11    -0.118514774767E+04   -0.13447E-03   -0.13456E-03  2944   0.166E-02-0.103E-05
CGA:  12    -0.118514787354E+04   -0.12586E-03   -0.12586E-03  2944   0.829E-03-0.558E-06
CGA:  13    -0.118514794324E+04   -0.69699E-04   -0.69705E-04  2944   0.447E-03-0.920E-06
CGA:  14    -0.118514797256E+04   -0.29317E-04   -0.29328E-04  2944   0.738E-03 0.126E-05
CGA:  15    -0.118514800918E+04   -0.36620E-04   -0.36738E-04  2944   0.184E-03 0.383E-05
CGA:  16    -0.118514802921E+04   -0.20039E-04   -0.19916E-04  2944   0.139E-03 0.368E-05
CGA:  17    -0.118514803890E+04   -0.96880E-05   -0.97099E-05  2944   0.159E-03 0.298E-05
  16 F= -.11851480E+04 E0= -.11851285E+04  d E =-.814792E-02  mag=   118.0000
       N       E                     dE             d eps       ncg     rms          ort
SDA:   1    -0.118512005417E+04    0.27975E-01    0.00000E+00  2944   0.225E+00 0.000E+00
CGA:   2    -0.118512675876E+04   -0.67046E-02   -0.66348E-02  2944   0.109E+00 0.134E-02
CGA:   3    -0.118513421178E+04   -0.74530E-02   -0.74437E-02  2944   0.121E+00-0.105E-02
CGA:   4    -0.118514567140E+04   -0.11460E-01   -0.11456E-01  2944   0.227E-01 0.891E-04
CGA:   5    -0.118514784597E+04   -0.21746E-02   -0.21741E-02  2944   0.219E-01 0.196E-04
CGA:   6    -0.118514890177E+04   -0.10558E-02   -0.10555E-02  2944   0.186E-01 0.185E-04
CGA:   7    -0.118514961311E+04   -0.71134E-03   -0.71696E-03  2944   0.319E-02-0.333E-04
CGA:   8    -0.118515000685E+04   -0.39374E-03   -0.39303E-03  2944   0.160E-02 0.143E-04
CGA:   9    -0.118515014875E+04   -0.14190E-03   -0.14167E-03  2944   0.567E-03 0.139E-04
CGA:  10    -0.118515020417E+04   -0.55423E-04   -0.55433E-04  2944   0.356E-03-0.222E-06
CGA:  11    -0.118515023065E+04   -0.26474E-04   -0.26473E-04  2944   0.329E-03-0.785E-06
CGA:  12    -0.118515024499E+04   -0.14340E-04   -0.14313E-04  2944   0.284E-03-0.706E-06
CGA:  13    -0.118515026320E+04   -0.18212E-04   -0.18194E-04  2944   0.715E-04-0.191E-05
CGA:  14    -0.118515027275E+04   -0.95467E-05   -0.95218E-05  2944   0.651E-04 0.408E-06
  17 F= -.11851503E+04 E0= -.11851307E+04  d E =-.223384E-02  mag=   118.0000
       N       E                     dE             d eps       ncg     rms          ort
SDA:   1    -0.118450281047E+04    0.64745E+00    0.00000E+00  2944   0.201E+01 0.000E+00
CGA:   2    -0.118469167374E+04   -0.18886E+00   -0.18784E+00  2944   0.540E+01 0.468E-01
CGA:   3    -0.118495748109E+04   -0.26581E+00   -0.26399E+00  2944   0.122E+01 0.617E-04
CGA:   4    -0.118505547572E+04   -0.97995E-01   -0.97711E-01  2944   0.621E+00 0.579E-01
CGA:   5    -0.118510348836E+04   -0.48013E-01   -0.48025E-01  2944   0.806E+00 0.145E-02
CGA:   6    -0.118512978318E+04   -0.26295E-01   -0.26589E-01  2944   0.156E+00-0.610E-02
CGA:   7    -0.118514147252E+04   -0.11689E-01   -0.11689E-01  2944   0.965E-01 0.346E-03
CGA:   8    -0.118515042730E+04   -0.89548E-02   -0.89534E-02  2944   0.264E-01 0.622E-04
CGA:   9    -0.118515213831E+04   -0.17110E-02   -0.17103E-02  2944   0.294E-01-0.138E-04
CGA:  10    -0.118515316462E+04   -0.10263E-02   -0.10268E-02  2944   0.105E-01-0.515E-05
CGA:  11    -0.118515426314E+04   -0.10985E-02   -0.10981E-02  2944   0.568E-02 0.864E-05
CGA:  12    -0.118515476492E+04   -0.50178E-03   -0.50224E-03  2944   0.236E-02-0.238E-04
CGA:  13    -0.118515506360E+04   -0.29868E-03   -0.29853E-03  2944   0.247E-02 0.221E-05
CGA:  14    -0.118515521107E+04   -0.14747E-03   -0.14745E-03  2944   0.251E-02-0.691E-07
CGA:  15    -0.118515530325E+04   -0.92180E-04   -0.92339E-04  2944   0.882E-03 0.904E-06
CGA:  16    -0.118515540748E+04   -0.10423E-03   -0.10411E-03  2944   0.856E-03 0.289E-05
CGA:  17    -0.118515549155E+04   -0.84066E-04   -0.83975E-04  2944   0.424E-03 0.452E-05
CGA:  18    -0.118515552690E+04   -0.35351E-04   -0.35347E-04  2944   0.756E-03 0.853E-06
CGA:  19    -0.118515555553E+04   -0.28635E-04   -0.28667E-04  2944   0.234E-03 0.701E-06
CGA:  20    -0.118515558646E+04   -0.30931E-04   -0.30937E-04  2944   0.178E-03-0.123E-06
CGA:  21    -0.118515560267E+04   -0.16208E-04   -0.16223E-04  2944   0.104E-03-0.130E-05
CGA:  22    -0.118515561045E+04   -0.77764E-05   -0.77743E-05  2944   0.161E-03-0.403E-06
  18 F= -.11851556E+04 E0= -.11851360E+04  d E =-.533770E-02  mag=   118.0000
       N       E                     dE             d eps       ncg     rms          ort
SDA:   1    -0.118477901638E+04    0.37659E+00    0.00000E+00  2944   0.274E+01 0.000E+00
CGA:   2    -0.118484902920E+04   -0.70013E-01   -0.69980E-01  2944   0.122E+01-0.335E-01
CGA:   3    -0.118502121330E+04   -0.17218E+00   -0.17193E+00  2944   0.125E+01 0.416E-02
CGA:   4    -0.118509364138E+04   -0.72428E-01   -0.72732E-01  2944   0.324E+00 0.140E-02
CGA:   5    -0.118514132850E+04   -0.47687E-01   -0.47618E-01  2944   0.139E+00 0.961E-03
CGA:   6    -0.118514648818E+04   -0.51597E-02   -0.52067E-02  2944   0.116E+00-0.808E-03
CGA:   7    -0.118515369579E+04   -0.72076E-02   -0.71878E-02  2944   0.391E-01-0.275E-03
CGA:   8    -0.118515701319E+04   -0.33174E-02   -0.33166E-02  2944   0.167E-01 0.677E-04
CGA:   9    -0.118515823184E+04   -0.12187E-02   -0.12182E-02  2944   0.101E-01-0.369E-04
CGA:  10    -0.118515860409E+04   -0.37225E-03   -0.37153E-03  2944   0.700E-02 0.822E-05
CGA:  11    -0.118515911637E+04   -0.51228E-03   -0.51232E-03  2944   0.390E-02 0.741E-05
CGA:  12    -0.118515944897E+04   -0.33260E-03   -0.33268E-03  2944   0.114E-02-0.541E-05
CGA:  13    -0.118515956493E+04   -0.11595E-03   -0.11593E-03  2944   0.262E-02 0.917E-06
CGA:  14    -0.118515966900E+04   -0.10407E-03   -0.10393E-03  2944   0.938E-03 0.668E-06
CGA:  15    -0.118515973826E+04   -0.69256E-04   -0.69259E-04  2944   0.432E-03-0.245E-06
CGA:  16    -0.118515978886E+04   -0.50603E-04   -0.50561E-04  2944   0.482E-03 0.928E-06
CGA:  17    -0.118515981314E+04   -0.24277E-04   -0.24290E-04  2944   0.528E-03 0.388E-06
CGA:  18    -0.118515984172E+04   -0.28581E-04   -0.28583E-04  2944   0.173E-03-0.166E-06
CGA:  19    -0.118515985806E+04   -0.16339E-04   -0.16326E-04  2944   0.116E-03 0.678E-06
CGA:  20    -0.118515986917E+04   -0.11113E-04   -0.11111E-04  2944   0.190E-03 0.681E-07
CGA:  21    -0.118515987605E+04   -0.68815E-05   -0.68968E-05  2944   0.768E-04 0.274E-06
  19 F= -.11851599E+04 E0= -.11851402E+04  d E =-.426560E-02  mag=   118.0000
       N       E                     dE             d eps       ncg     rms          ort
SDA:   1    -0.116214115736E+04    0.23019E+02    0.00000E+00  2944   0.828E+02 0.000E+00
CGA:   2    -0.116787285554E+04   -0.57317E+01   -0.58959E+01  2944   0.863E+02 0.196E+02
CGA:   3    -0.117576882349E+04   -0.78960E+01   -0.76629E+01  2944   0.139E+03-0.372E+02
CGA:   4    -0.117919210540E+04   -0.34233E+01   -0.35124E+01  2944   0.101E+03-0.563E+00
CGA:   5    -0.117987588253E+04   -0.68378E+00   -0.24687E+01  2944   0.794E+02-0.787E+02
CGA:   6    -0.118107050994E+04   -0.11946E+01   -0.21616E+01  2944   0.802E+02-0.509E+02
CGA:   7    -0.118177239448E+04   -0.70188E+00   -0.21395E+01  2944   0.688E+02-0.476E+02
CGA:   8    -0.118261881059E+04   -0.84642E+00   -0.15914E+01  2944   0.447E+02-0.426E+02
CGA:   9    -0.118318115919E+04   -0.56235E+00   -0.97310E+00  2944   0.230E+02-0.191E+02
CGA:  10    -0.118438861368E+04   -0.12075E+01   -0.12379E+01  2944   0.140E+02-0.662E+00
CGA:  11    -0.118464571015E+04   -0.25710E+00   -0.30499E+00  2944   0.311E+01-0.187E+01
CGA:  12    -0.118475741249E+04   -0.11170E+00   -0.11358E+00  2944   0.224E+01-0.339E-02
CGA:  13    -0.118488355487E+04   -0.12614E+00   -0.12670E+00  2944   0.244E+01 0.569E-01
CGA:  14    -0.118499865171E+04   -0.11510E+00   -0.11597E+00  2944   0.135E+01 0.929E-02
CGA:  15    -0.118504976695E+04   -0.51115E-01   -0.52549E-01  2944   0.648E+00-0.349E-02
CGA:  16    -0.118508147484E+04   -0.31708E-01   -0.31897E-01  2944   0.531E+00 0.617E-02
CGA:  17    -0.118511312015E+04   -0.31645E-01   -0.31621E-01  2944   0.430E+00 0.186E-01
CGA:  18    -0.118513320419E+04   -0.20084E-01   -0.20258E-01  2944   0.231E+00 0.321E-02
CGA:  19    -0.118514455631E+04   -0.11352E-01   -0.11401E-01  2944   0.142E+00 0.189E-02
CGA:  20    -0.118515194806E+04   -0.73918E-02   -0.74046E-02  2944   0.967E-01 0.959E-03
CGA:  21    -0.118515739478E+04   -0.54467E-02   -0.54489E-02  2944   0.733E-01 0.106E-02
CGA:  22    -0.118516141039E+04   -0.40156E-02   -0.40177E-02  2944   0.489E-01 0.365E-03
CGA:  23    -0.118516399616E+04   -0.25858E-02   -0.25883E-02  2944   0.339E-01 0.279E-03
CGA:  24    -0.118516611457E+04   -0.21184E-02   -0.21171E-02  2944   0.322E-01 0.144E-03
CGA:  25    -0.118516807921E+04   -0.19646E-02   -0.19634E-02  2944   0.240E-01 0.189E-03
CGA:  26    -0.118516930866E+04   -0.12294E-02   -0.12301E-02  2944   0.152E-01 0.499E-04
CGA:  27    -0.118517021955E+04   -0.91089E-03   -0.91067E-03  2944   0.131E-01 0.472E-04
CGA:  28    -0.118517096828E+04   -0.74874E-03   -0.74872E-03  2944   0.860E-02 0.380E-04
CGA:  29    -0.118517138779E+04   -0.41951E-03   -0.41977E-03  2944   0.480E-02 0.202E-04
CGA:  30    -0.118517166009E+04   -0.27230E-03   -0.27230E-03  2944   0.381E-02 0.123E-04
CGA:  31    -0.118517188619E+04   -0.22610E-03   -0.22608E-03  2944   0.281E-02 0.913E-05
CGA:  32    -0.118517203470E+04   -0.14850E-03   -0.14853E-03  2944   0.183E-02 0.574E-05
CGA:  33    -0.118517214436E+04   -0.10966E-03   -0.10965E-03  2944   0.158E-02 0.438E-05
CGA:  34    -0.118517224099E+04   -0.96624E-04   -0.96611E-04  2944   0.121E-02 0.289E-05
CGA:  35    -0.118517230616E+04   -0.65175E-04   -0.65180E-04  2944   0.799E-03 0.163E-05
CGA:  36    -0.118517235359E+04   -0.47429E-04   -0.47431E-04  2944   0.648E-03-0.696E-06
CGA:  37    -0.118517239159E+04   -0.38001E-04   -0.38004E-04  2944   0.473E-03-0.162E-05
CGA:  38    -0.118517241819E+04   -0.26601E-04   -0.26599E-04  2944   0.345E-03-0.296E-05
SDA:  39    -0.118517243832E+04   -0.20124E-04   -0.20130E-04  2944   0.255E-03-0.300E-05
CGA:  40    -0.118517244378E+04   -0.54648E-05   -0.54534E-05  2944   0.670E-04-0.440E-06
  20 F= -.11851724E+04 E0= -.11851528E+04  d E =-.125677E-01  mag=   118.0000
       N       E                     dE             d eps       ncg     rms          ort
SDA:   1    -0.116746870068E+04    0.17704E+02    0.00000E+00  2944   0.862E+02 0.000E+00
CGA:   2    -0.116943236713E+04   -0.19637E+01   -0.48722E+01  2944   0.135E+03-0.130E+02
CGA:   3    -0.117852705430E+04   -0.90947E+01   -0.90402E+01  2944   0.591E+02-0.582E+01
CGA:   4    -0.118141124453E+04   -0.28842E+01   -0.35676E+01  2944   0.138E+02 0.208E+00
CGA:   5    -0.118272677890E+04   -0.13155E+01   -0.92913E+00  2944   0.711E+01-0.217E+00
CGA:   6    -0.118346403099E+04   -0.73725E+00   -0.75746E+00  2944   0.644E+01-0.101E+01
CGA:   7    -0.118378018705E+04   -0.31616E+00   -0.29722E+00  2944   0.369E+01 0.125E+00
CGA:   8    -0.118390003703E+04   -0.11985E+00   -0.12381E+00  2944   0.220E+01-0.154E+00
CGA:   9    -0.118405035093E+04   -0.15031E+00   -0.14579E+00  2944   0.133E+01-0.506E-01
CGA:  10    -0.118412301683E+04   -0.72666E-01   -0.66138E-01  2944   0.931E+00 0.386E-01
CGA:  11    -0.118416378828E+04   -0.40771E-01   -0.40349E-01  2944   0.602E+00-0.468E-03
CGA:  12    -0.118418280460E+04   -0.19016E-01   -0.17760E-01  2944   0.331E+00 0.308E-01
CGA:  13    -0.118420899405E+04   -0.26189E-01   -0.26267E-01  2944   0.310E+00 0.483E-02
CGA:  14    -0.118423099762E+04   -0.22004E-01   -0.21928E-01  2944   0.318E+00-0.192E-02
CGA:  15    -0.118424196285E+04   -0.10965E-01   -0.12490E-01  2944   0.191E+00-0.181E-01
CGA:  16    -0.118424791939E+04   -0.59565E-02   -0.57137E-02  2944   0.979E-01 0.432E-02
CGA:  17    -0.118425398801E+04   -0.60686E-02   -0.61582E-02  2944   0.725E-01 0.157E-02
CGA:  18    -0.118426015352E+04   -0.61655E-02   -0.61614E-02  2944   0.862E-01 0.321E-03
CGA:  19    -0.118426312121E+04   -0.29677E-02   -0.31576E-02  2944   0.409E-01-0.262E-02
CGA:  20    -0.118426465457E+04   -0.15334E-02   -0.15565E-02  2944   0.138E-01-0.256E-03
CGA:  21    -0.118426559407E+04   -0.93950E-03   -0.94084E-03  2944   0.147E-01 0.147E-03
CGA:  22    -0.118426639326E+04   -0.79919E-03   -0.80171E-03  2944   0.152E-01 0.286E-04
CGA:  23    -0.118426711804E+04   -0.72478E-03   -0.72678E-03  2944   0.500E-02 0.778E-05
CGA:  24    -0.118426741968E+04   -0.30164E-03   -0.30218E-03  2944   0.409E-02 0.217E-04
CGA:  25    -0.118426762040E+04   -0.20071E-03   -0.20113E-03  2944   0.341E-02 0.902E-06
CGA:  26    -0.118426780063E+04   -0.18024E-03   -0.18030E-03  2944   0.227E-02-0.183E-05
CGA:  27    -0.118426798684E+04   -0.18621E-03   -0.18627E-03  2944   0.184E-02-0.554E-05
CGA:  28    -0.118426806562E+04   -0.78776E-04   -0.78705E-04  2944   0.145E-02-0.349E-05
CGA:  29    -0.118426815542E+04   -0.89806E-04   -0.89763E-04  2944   0.104E-02-0.732E-05
CGA:  30    -0.118426822452E+04   -0.69094E-04   -0.69094E-04  2944   0.877E-03-0.606E-05
CGA:  31    -0.118426827655E+04   -0.52034E-04   -0.52013E-04  2944   0.101E-02-0.353E-05
SDA:  32    -0.118426832430E+04   -0.47744E-04   -0.47678E-04  2944   0.391E-03-0.195E-05
CGA:  33    -0.118426834009E+04   -0.15792E-04   -0.15799E-04  2944   0.339E-03-0.282E-07
CGA:  34    -0.118426835880E+04   -0.18715E-04   -0.18723E-04  2944   0.338E-03 0.103E-05
CGA:  35    -0.118426839119E+04   -0.32388E-04   -0.32296E-04  2944   0.144E-03 0.279E-05
CGA:  36    -0.118426841132E+04   -0.20128E-04   -0.20092E-04  2944   0.934E-04 0.385E-06
CGA:  37    -0.118426841755E+04   -0.62283E-05   -0.62290E-05  2944   0.877E-04 0.129E-06
  21 F= -.11842684E+04 E0= -.11842487E+04  d E =0.904026E+00  mag=   118.0000
       N       E                     dE             d eps       ncg     rms          ort
SDA:   1    -0.118294543396E+04    0.13230E+01    0.00000E+00  2944   0.505E+01 0.000E+00
CGA:   2    -0.118386572693E+04   -0.92029E+00   -0.92669E+00  2944   0.138E+02 0.321E-01
CGA:   3    -0.118439643316E+04   -0.53071E+00   -0.54405E+00  2944   0.957E+01-0.520E+00
CGA:   4    -0.118468016427E+04   -0.28373E+00   -0.28938E+00  2944   0.107E+01-0.175E+00
CGA:   5    -0.118480320115E+04   -0.12304E+00   -0.12279E+00  2944   0.919E+00 0.298E-02
CGA:   6    -0.118487216109E+04   -0.68960E-01   -0.68957E-01  2944   0.909E+00 0.767E-03
CGA:   7    -0.118489665374E+04   -0.24493E-01   -0.25636E-01  2944   0.218E+00-0.279E-01
CGA:   8    -0.118491198442E+04   -0.15331E-01   -0.15325E-01  2944   0.952E-01 0.145E-02
CGA:   9    -0.118492122259E+04   -0.92382E-02   -0.92218E-02  2944   0.912E-01 0.500E-03
CGA:  10    -0.118492493496E+04   -0.37124E-02   -0.37115E-02  2944   0.683E-01 0.205E-04
CGA:  11    -0.118492819933E+04   -0.32644E-02   -0.32607E-02  2944   0.196E-01 0.150E-04
CGA:  12    -0.118493065116E+04   -0.24518E-02   -0.24607E-02  2944   0.192E-01-0.150E-03
CGA:  13    -0.118493180680E+04   -0.11556E-02   -0.11565E-02  2944   0.222E-01 0.274E-04
CGA:  14    -0.118493259787E+04   -0.79107E-03   -0.78648E-03  2944   0.570E-02 0.646E-04
CGA:  15    -0.118493310971E+04   -0.51184E-03   -0.51156E-03  2944   0.427E-02 0.858E-05
CGA:  16    -0.118493352177E+04   -0.41207E-03   -0.41231E-03  2944   0.591E-02-0.828E-05
CGA:  17    -0.118493370792E+04   -0.18614E-03   -0.18612E-03  2944   0.222E-02-0.178E-05
CGA:  18    -0.118493388048E+04   -0.17257E-03   -0.17259E-03  2944   0.863E-03-0.300E-05
CGA:  19    -0.118493395287E+04   -0.72393E-04   -0.72355E-04  2944   0.991E-03 0.279E-05
CGA:  20    -0.118493399425E+04   -0.41372E-04   -0.41440E-04  2944   0.756E-03 0.157E-05
CGA:  21    -0.118493403976E+04   -0.45518E-04   -0.45550E-04  2944   0.250E-03 0.328E-05
CGA:  22    -0.118493406620E+04   -0.26435E-04   -0.26273E-04  2944   0.214E-03 0.449E-05
CGA:  23    -0.118493407352E+04   -0.73199E-05   -0.73677E-05  2944   0.145E-03 0.133E-05
CGA:  24    -0.118493408741E+04   -0.13894E-04   -0.13841E-04  2944   0.933E-04 0.207E-05
CGA:  25    -0.118493409406E+04   -0.66442E-05   -0.66437E-05  2944   0.528E-04 0.167E-05
  22 F= -.11849341E+04 E0= -.11849145E+04  d E =-.665677E+00  mag=   118.0000
       N       E                     dE             d eps       ncg     rms          ort
SDA:   1    -0.118457507636E+04    0.35901E+00    0.00000E+00  2944   0.131E+01 0.000E+00
CGA:   2    -0.118486670879E+04   -0.29163E+00   -0.29680E+00  2944   0.362E+01-0.377E-01
CGA:   3    -0.118498678190E+04   -0.12007E+00   -0.12289E+00  2944   0.173E+01-0.572E-01
CGA:   4    -0.118504257784E+04   -0.55796E-01   -0.59652E-01  2944   0.306E+00-0.715E-01
CGA:   5    -0.118507704042E+04   -0.34463E-01   -0.33917E-01  2944   0.210E+00 0.110E-01
CGA:   6    -0.118509430385E+04   -0.17263E-01   -0.17257E-01  2944   0.212E+00 0.101E-02
CGA:   7    -0.118510007632E+04   -0.57725E-02   -0.56965E-02  2944   0.549E-01 0.200E-02
CGA:   8    -0.118510405456E+04   -0.39782E-02   -0.39787E-02  2944   0.278E-01 0.114E-03
CGA:   9    -0.118510599123E+04   -0.19367E-02   -0.19376E-02  2944   0.410E-01 0.106E-03
CGA:  10    -0.118510738177E+04   -0.13905E-02   -0.13892E-02  2944   0.122E-01 0.249E-04
CGA:  11    -0.118510826814E+04   -0.88637E-03   -0.88633E-03  2944   0.604E-02 0.178E-04
CGA:  12    -0.118510874420E+04   -0.47606E-03   -0.47601E-03  2944   0.124E-01 0.613E-05
CGA:  13    -0.118510921756E+04   -0.47336E-03   -0.47458E-03  2944   0.328E-02-0.107E-04
CGA:  14    -0.118510949932E+04   -0.28177E-03   -0.28158E-03  2944   0.208E-02 0.960E-05
CGA:  15    -0.118510959179E+04   -0.92461E-04   -0.92514E-04  2944   0.224E-02-0.126E-06
CGA:  16    -0.118510970686E+04   -0.11508E-03   -0.11506E-03  2944   0.112E-02-0.193E-05
CGA:  17    -0.118510981381E+04   -0.10695E-03   -0.10689E-03  2944   0.772E-03 0.158E-05
CGA:  18    -0.118510984316E+04   -0.29344E-04   -0.29348E-04  2944   0.614E-03-0.153E-06
CGA:  19    -0.118510987256E+04   -0.29408E-04   -0.29396E-04  2944   0.202E-03-0.774E-06
CGA:  20    -0.118510990011E+04   -0.27550E-04   -0.27485E-04  2944   0.222E-03 0.937E-06
CGA:  21    -0.118510990747E+04   -0.73552E-05   -0.73726E-05  2944   0.141E-03 0.337E-06
  23 F= -.11851099E+04 E0= -.11850904E+04  d E =-.175813E+00  mag=   118.0000
       N       E                     dE             d eps       ncg     rms          ort
SDA:   1    -0.118460827380E+04    0.50163E+00    0.00000E+00  2944   0.191E+01 0.000E+00
CGA:   2    -0.118470184943E+04   -0.93576E-01   -0.94314E-01  2944   0.327E+01 0.144E-02
CGA:   3    -0.118504557734E+04   -0.34373E+00   -0.34799E+00  2944   0.127E+01-0.982E-01
CGA:   4    -0.118510894367E+04   -0.63366E-01   -0.65647E-01  2944   0.320E+00 0.302E-01
CGA:   5    -0.118514378343E+04   -0.34840E-01   -0.34893E-01  2944   0.336E+00-0.107E-02
CGA:   6    -0.118515717489E+04   -0.13391E-01   -0.13419E-01  2944   0.243E+00-0.328E-03
CGA:   7    -0.118516935082E+04   -0.12176E-01   -0.12003E-01  2944   0.588E-01-0.883E-03
CGA:   8    -0.118517395556E+04   -0.46047E-02   -0.46033E-02  2944   0.295E-01 0.871E-04
CGA:   9    -0.118517586589E+04   -0.19103E-02   -0.19101E-02  2944   0.449E-01-0.206E-04
CGA:  10    -0.118517777126E+04   -0.19054E-02   -0.19084E-02  2944   0.809E-02-0.539E-05
CGA:  11    -0.118517855836E+04   -0.78710E-03   -0.78609E-03  2944   0.794E-02 0.277E-04
CGA:  12    -0.118517907811E+04   -0.51975E-03   -0.51979E-03  2944   0.104E-01 0.909E-05
CGA:  13    -0.118517949152E+04   -0.41340E-03   -0.41197E-03  2944   0.295E-02 0.180E-04
CGA:  14    -0.118517977702E+04   -0.28550E-03   -0.28541E-03  2944   0.172E-02 0.301E-05
CGA:  15    -0.118517987781E+04   -0.10079E-03   -0.10082E-03  2944   0.212E-02 0.194E-05
CGA:  16    -0.118517998054E+04   -0.10273E-03   -0.10271E-03  2944   0.126E-02 0.190E-05
CGA:  17    -0.118518008854E+04   -0.10800E-03   -0.10798E-03  2944   0.426E-03 0.518E-06
CGA:  18    -0.118518011313E+04   -0.24594E-04   -0.24598E-04  2944   0.528E-03 0.531E-06
CGA:  19    -0.118518013832E+04   -0.25192E-04   -0.25192E-04  2944   0.263E-03 0.163E-06
CGA:  20    -0.118518016396E+04   -0.25641E-04   -0.25639E-04  2944   0.146E-03-0.197E-07
CGA:  21    -0.118518017106E+04   -0.70923E-05   -0.70966E-05  2944   0.151E-03 0.185E-06
  24 F= -.11851802E+04 E0= -.11851606E+04  d E =-.702636E-01  mag=   118.0000
       N       E                     dE             d eps       ncg     rms          ort
SDA:   1    -0.118515061327E+04    0.29551E-01    0.00000E+00  2944   0.341E+00 0.000E+00
CGA:   2    -0.118515813401E+04   -0.75207E-02   -0.73146E-02  2944   0.919E-01 0.688E-02
CGA:   3    -0.118517021804E+04   -0.12084E-01   -0.12065E-01  2944   0.148E+00 0.313E-03
CGA:   4    -0.118518001307E+04   -0.97950E-02   -0.97962E-02  2944   0.470E-01 0.471E-03
CGA:   5    -0.118518129122E+04   -0.12782E-02   -0.12840E-02  2944   0.235E-01-0.138E-03
CGA:   6    -0.118518398156E+04   -0.26903E-02   -0.26847E-02  2944   0.868E-02 0.108E-03
CGA:   7    -0.118518472667E+04   -0.74510E-03   -0.74585E-03  2944   0.499E-02-0.270E-04
CGA:   8    -0.118518497574E+04   -0.24907E-03   -0.24916E-03  2944   0.468E-02 0.370E-05
CGA:   9    -0.118518514970E+04   -0.17396E-03   -0.17390E-03  2944   0.127E-02 0.223E-05
CGA:  10    -0.118518528628E+04   -0.13658E-03   -0.13657E-03  2944   0.551E-03 0.189E-06
CGA:  11    -0.118518533372E+04   -0.47445E-04   -0.47472E-04  2944   0.287E-03-0.132E-05
CGA:  12    -0.118518537441E+04   -0.40683E-04   -0.40620E-04  2944   0.224E-03 0.846E-06
CGA:  13    -0.118518539036E+04   -0.15948E-04   -0.15949E-04  2944   0.147E-03 0.222E-07
CGA:  14    -0.118518539741E+04   -0.70567E-05   -0.70610E-05  2944   0.158E-03 0.209E-06
  25 F= -.11851854E+04 E0= -.11851658E+04  d E =-.522636E-02  mag=   118.0000
       N       E                     dE             d eps       ncg     rms          ort
SDA:   1    -0.118508749989E+04    0.97890E-01    0.00000E+00  2944   0.639E+00 0.000E+00
CGA:   2    -0.118510480497E+04   -0.17305E-01   -0.17185E-01  2944   0.362E+00 0.200E-02
CGA:   3    -0.118515694604E+04   -0.52141E-01   -0.52874E-01  2944   0.344E+00-0.984E-02
CGA:   4    -0.118517507952E+04   -0.18133E-01   -0.18353E-01  2944   0.777E-01 0.236E-02
CGA:   5    -0.118518454186E+04   -0.94623E-02   -0.94510E-02  2944   0.869E-01 0.211E-03
CGA:   6    -0.118518729082E+04   -0.27490E-02   -0.27595E-02  2944   0.409E-01-0.180E-03
CGA:   7    -0.118518951760E+04   -0.22268E-02   -0.22282E-02  2944   0.127E-01 0.232E-04
CGA:   8    -0.118519087799E+04   -0.13604E-02   -0.13600E-02  2944   0.609E-02 0.995E-05
CGA:   9    -0.118519122967E+04   -0.35168E-03   -0.35161E-03  2944   0.611E-02-0.210E-05
CGA:  10    -0.118519144867E+04   -0.21901E-03   -0.21941E-03  2944   0.205E-02-0.618E-05
CGA:  11    -0.118519160677E+04   -0.15810E-03   -0.15816E-03  2944   0.896E-03-0.520E-05
CGA:  12    -0.118519173228E+04   -0.12551E-03   -0.12549E-03  2944   0.124E-02 0.282E-06
CGA:  13    -0.118519176628E+04   -0.34006E-04   -0.33992E-04  2944   0.402E-03-0.723E-06
CGA:  14    -0.118519180245E+04   -0.36162E-04   -0.36168E-04  2944   0.290E-03-0.278E-06
CGA:  15    -0.118519183015E+04   -0.27700E-04   -0.27656E-04  2944   0.249E-03 0.188E-05
CGA:  16    -0.118519184242E+04   -0.12272E-04   -0.12296E-04  2944   0.241E-03 0.990E-06
CGA:  17    -0.118519185358E+04   -0.11158E-04   -0.11177E-04  2944   0.899E-04 0.651E-06
CGA:  18    -0.118519186334E+04   -0.97594E-05   -0.97187E-05  2944   0.590E-04 0.109E-05
  26 F= -.11851919E+04 E0= -.11851722E+04  d E =-.646592E-02  mag=   118.0000
       N       E                     dE             d eps       ncg     rms          ort
SDA:   1    -0.118517543849E+04    0.16415E-01    0.00000E+00  2944   0.398E+00 0.000E+00
CGA:   2    -0.118518252917E+04   -0.70907E-02   -0.70851E-02  2944   0.319E-01-0.225E-03
CGA:   3    -0.118518829345E+04   -0.57643E-02   -0.57745E-02  2944   0.496E-01-0.100E-03
CGA:   4    -0.118519138345E+04   -0.30900E-02   -0.30919E-02  2944   0.100E-01 0.302E-04
CGA:   5    -0.118519259531E+04   -0.12119E-02   -0.12071E-02  2944   0.630E-02 0.940E-04
CGA:   6    -0.118519310904E+04   -0.51373E-03   -0.51366E-03  2944   0.537E-02 0.145E-04
CGA:   7    -0.118519324836E+04   -0.13932E-03   -0.13923E-03  2944   0.134E-02 0.409E-05
CGA:   8    -0.118519339939E+04   -0.15103E-03   -0.15087E-03  2944   0.529E-03 0.353E-05
CGA:   9    -0.118519345645E+04   -0.57061E-04   -0.57151E-04  2944   0.269E-03-0.266E-05
CGA:  10    -0.118519347014E+04   -0.13692E-04   -0.13691E-04  2944   0.255E-03-0.872E-07
CGA:  11    -0.118519348092E+04   -0.10779E-04   -0.10767E-04  2944   0.140E-03-0.343E-06
CGA:  12    -0.118519349516E+04   -0.14238E-04   -0.14263E-04  2944   0.715E-04-0.903E-06
CGA:  13    -0.118519350065E+04   -0.54877E-05   -0.54878E-05  2944   0.418E-04-0.103E-06
  27 F= -.11851935E+04 E0= -.11851739E+04  d E =-.163731E-02  mag=   118.0000
       N       E                     dE             d eps       ncg     rms          ort
SDA:   1    -0.118421877935E+04    0.97472E+00    0.00000E+00  2944   0.638E+01 0.000E+00
CGA:   2    -0.118438797155E+04   -0.16919E+00   -0.17288E+00  2944   0.363E+01-0.249E+00
CGA:   3    -0.118490781457E+04   -0.51984E+00   -0.52302E+00  2944   0.208E+01-0.412E-01
CGA:   4    -0.118503083693E+04   -0.12302E+00   -0.12514E+00  2944   0.879E+00 0.264E-01
CGA:   5    -0.118514019425E+04   -0.10936E+00   -0.11020E+00  2944   0.635E+00-0.160E-01
CGA:   6    -0.118515746670E+04   -0.17272E-01   -0.17427E-01  2944   0.279E+00-0.454E-02
CGA:   7    -0.118517788039E+04   -0.20414E-01   -0.20391E-01  2944   0.115E+00-0.319E-02
CGA:   8    -0.118518798341E+04   -0.10103E-01   -0.10103E-01  2944   0.486E-01 0.171E-04
CGA:   9    -0.118519117948E+04   -0.31961E-02   -0.31982E-02  2944   0.432E-01 0.528E-04
CGA:  10    -0.118519250944E+04   -0.13300E-02   -0.13383E-02  2944   0.146E-01-0.183E-03
CGA:  11    -0.118519384873E+04   -0.13393E-02   -0.13392E-02  2944   0.110E-01 0.355E-05
CGA:  12    -0.118519488541E+04   -0.10367E-02   -0.10351E-02  2944   0.432E-02 0.573E-04
CGA:  13    -0.118519505742E+04   -0.17201E-03   -0.17189E-03  2944   0.438E-02 0.428E-06
CGA:  14    -0.118519545607E+04   -0.39866E-03   -0.39829E-03  2944   0.252E-02 0.156E-04
CGA:  15    -0.118519566527E+04   -0.20920E-03   -0.20912E-03  2944   0.156E-02 0.561E-05
CGA:  16    -0.118519577561E+04   -0.11034E-03   -0.11036E-03  2944   0.194E-02 0.385E-05
CGA:  17    -0.118519584679E+04   -0.71179E-04   -0.71234E-04  2944   0.826E-03 0.275E-05
CGA:  18    -0.118519596840E+04   -0.12162E-03   -0.12142E-03  2944   0.556E-03 0.277E-05
CGA:  19    -0.118519600414E+04   -0.35733E-04   -0.35743E-04  2944   0.550E-03 0.842E-06
CGA:  20    -0.118519602532E+04   -0.21181E-04   -0.21187E-04  2944   0.334E-03 0.329E-06
CGA:  21    -0.118519606283E+04   -0.37514E-04   -0.37568E-04  2944   0.210E-03-0.146E-05
CGA:  22    -0.118519607793E+04   -0.15102E-04   -0.15102E-04  2944   0.149E-03-0.132E-06
CGA:  23    -0.118519608469E+04   -0.67569E-05   -0.67423E-05  2944   0.160E-03-0.448E-06
CGA:  24    -0.118519609758E+04   -0.12889E-04   -0.12895E-04  2944   0.717E-04-0.109E-05
CGA:  25    -0.118519610626E+04   -0.86821E-05   -0.86912E-05  2944   0.799E-04-0.212E-06
  28 F= -.11851961E+04 E0= -.11851764E+04  d E =-.260561E-02  mag=   118.0000
       N       E                     dE             d eps       ncg     rms          ort
SDA:   1    -0.118512979191E+04    0.66306E-01    0.00000E+00  2944   0.239E+00 0.000E+00
CGA:   2    -0.118514541771E+04   -0.15626E-01   -0.15653E-01  2944   0.491E+00 0.933E-03
CGA:   3    -0.118517512608E+04   -0.29708E-01   -0.29753E-01  2944   0.157E+00 0.812E-03
CGA:   4    -0.118518537821E+04   -0.10252E-01   -0.10212E-01  2944   0.750E-01-0.153E-02
CGA:   5    -0.118519405537E+04   -0.86772E-02   -0.86693E-02  2944   0.270E-01 0.155E-03
CGA:   6    -0.118519558850E+04   -0.15331E-02   -0.15298E-02  2944   0.316E-01-0.307E-04
CGA:   7    -0.118519680699E+04   -0.12185E-02   -0.12201E-02  2944   0.934E-02-0.205E-04
CGA:   8    -0.118519756896E+04   -0.76197E-03   -0.76195E-03  2944   0.403E-02 0.671E-06
CGA:   9    -0.118519791219E+04   -0.34323E-03   -0.34323E-03  2944   0.147E-02 0.918E-06
CGA:  10    -0.118519800075E+04   -0.88560E-04   -0.88567E-04  2944   0.184E-02-0.145E-06
CGA:  11    -0.118519807587E+04   -0.75114E-04   -0.75265E-04  2944   0.797E-03-0.658E-06
CGA:  12    -0.118519815505E+04   -0.79181E-04   -0.79060E-04  2944   0.259E-03 0.410E-05
CGA:  13    -0.118519817953E+04   -0.24486E-04   -0.24473E-04  2944   0.300E-03 0.548E-06
CGA:  14    -0.118519819587E+04   -0.16335E-04   -0.16342E-04  2944   0.344E-03 0.340E-06
CGA:  15    -0.118519821123E+04   -0.15361E-04   -0.15372E-04  2944   0.823E-04 0.578E-06
CGA:  16    -0.118519822061E+04   -0.93860E-05   -0.94258E-05  2944   0.625E-04-0.921E-06
  29 F= -.11851982E+04 E0= -.11851786E+04  d E =-.211435E-02  mag=   118.0000
       N       E                     dE             d eps       ncg     rms          ort
SDA:   1    -0.118517829595E+04    0.19915E-01    0.00000E+00  2944   0.215E+00 0.000E+00
CGA:   2    -0.118518278735E+04   -0.44914E-02   -0.45011E-02  2944   0.548E-01-0.485E-03
CGA:   3    -0.118519240947E+04   -0.96221E-02   -0.96505E-02  2944   0.402E-01-0.301E-03
CGA:   4    -0.118519548245E+04   -0.30730E-02   -0.30730E-02  2944   0.230E-01-0.680E-05
CGA:   5    -0.118519723110E+04   -0.17487E-02   -0.17486E-02  2944   0.165E-01-0.144E-04
CGA:   6    -0.118519774100E+04   -0.50989E-03   -0.51051E-03  2944   0.793E-02-0.189E-04
CGA:   7    -0.118519838651E+04   -0.64551E-03   -0.64571E-03  2944   0.173E-02-0.194E-04
CGA:   8    -0.118519855899E+04   -0.17249E-03   -0.17235E-03  2944   0.200E-02 0.372E-05
CGA:   9    -0.118519863685E+04   -0.77857E-04   -0.77848E-04  2944   0.122E-02-0.488E-06
CGA:  10    -0.118519869144E+04   -0.54592E-04   -0.54679E-04  2944   0.224E-03 0.549E-06
CGA:  11    -0.118519871885E+04   -0.27411E-04   -0.27394E-04  2944   0.271E-03 0.393E-06
CGA:  12    -0.118519873410E+04   -0.15246E-04   -0.15263E-04  2944   0.282E-03 0.940E-06
CGA:  13    -0.118519874447E+04   -0.10376E-04   -0.10396E-04  2944   0.583E-04 0.640E-06
CGA:  14    -0.118519875233E+04   -0.78535E-05   -0.78421E-05  2944   0.665E-04 0.183E-06
  30 F= -.11851988E+04 E0= -.11851791E+04  d E =-.531712E-03  mag=   118.0000
