 vasp.6.1.2 22Jul20 (build Nov 12 2024 08:16:06) complex                        
  
 POSCAR found type information on POSCAR CaMnP O 
 03/POSCAR found :  4 types and     155 ions
 scaLAPACK will be used
 -----------------------------------------------------------------------------
|                                                                             |
|               ----> ADVICE to this user running VASP <----                  |
|                                                                             |
|     You have a (more or less) 'large supercell' and for larger cells it     |
|     might be more efficient to use real-space projection operators.         |
|     Therefore, try LREAL= Auto in the INCAR file.                           |
|     Mind: For very accurate calculation, you might also keep the            |
|     reciprocal projection scheme (i.e. LREAL=.FALSE.).                      |
|                                                                             |
 -----------------------------------------------------------------------------

 LDA part: xc-table for Pade appr. of Perdew
 POSCAR found type information on POSCAR CaMnP O 
 00/POSCAR found :  4 types and     155 ions
 POSCAR found type information on POSCAR CaMnP O 
 06/POSCAR found :  4 types and     155 ions
 Jacobian:    28.7777120473155     
 POSCAR found type information on POSCAR CaMnP O 
 00/POSCAR found :  4 types and     155 ions
 POSCAR found type information on POSCAR CaMnP O 
 06/POSCAR found :  4 types and     155 ions
 generate k-points for:    2    2    1
 POSCAR, INCAR and KPOINTS ok, starting setup
 FFT: planning ...
 WAVECAR not read
 entering main loop
       N       E                     dE             d eps       ncg     rms          ort
DAV:   1     0.137095712085E+05    0.13710E+05   -0.62393E+05  2944   0.167E+03
DAV:   2     0.505481818369E+03   -0.13204E+05   -0.12213E+05  2944   0.464E+02
DAV:   3    -0.126468071704E+04   -0.17702E+04   -0.17357E+04  2944   0.182E+02
DAV:   4    -0.134452293108E+04   -0.79842E+02   -0.78764E+02  2944   0.385E+01
DAV:   5    -0.134903689536E+04   -0.45140E+01   -0.44879E+01  2944   0.693E+00
 gam= 0.000 g(H,U,f)=  0.170E+04 0.300E+03 0.106E+03 ort(H,U,f) = 0.000E+00 0.000E+00 0.000E+00
SDA:   6    -0.852260306896E+03    0.49678E+03   -0.44879E+01  2944   0.211E+04 0.000E+00
 gam= 0.000 trial= 0.400  step= 0.273 mean= 0.400
 gam= 0.205 g(H,U,f)=  0.198E+03 0.179E+03 0.554E+02 ort(H,U,f) = 0.182E+02 0.586E+02-0.632E+01
CGA:   7    -0.112041864958E+04   -0.26816E+03   -0.28734E+03  2944   0.432E+03 0.705E+02
 gam= 0.205 trial= 0.394  step= 0.204 mean= 0.394
 gam= 0.518 g(H,U,f)=  0.999E+02 0.931E+02 0.312E+02 ort(H,U,f) =-0.337E+01-0.342E+01-0.136E+02
CGA:   8    -0.114320028690E+04   -0.22782E+02   -0.45478E+02  2944   0.224E+03-0.204E+02
 gam= 0.518 trial= 0.384  step= 0.145 mean= 0.384
 gam= 0.000 g(H,U,f)=  0.754E+02 0.180E+03 0.191E+02 ort(H,U,f) =-0.142E+02-0.920E+02-0.104E+02
CGA:   9    -0.115486188752E+04   -0.11662E+02   -0.15488E+02  2944   0.275E+03-0.117E+03
 gam= 0.000 trial= 0.372  step= 0.172 mean= 0.372
 gam= 0.820 g(H,U,f)=  0.481E+02 0.102E+03 0.756E+02 ort(H,U,f) =-0.403E+01-0.163E+02 0.112E+02
CGA:  10    -0.115967310426E+04   -0.48112E+01   -0.23672E+02  2944   0.226E+03-0.909E+01
 gam= 0.820 trial= 0.362  step= 0.177 mean= 0.362
 gam= 0.745 g(H,U,f)=  0.450E+02 0.102E+03 0.208E+02 ort(H,U,f) =-0.259E+02 0.322E+02 0.157E+02
CGA:  11    -0.116476467482E+04   -0.50916E+01   -0.19298E+02  2944   0.168E+03 0.220E+02
 gam= 0.745 trial= 0.353  step= 0.197 mean= 0.353
 gam= 0.952 g(H,U,f)=  0.284E+02 0.722E+02 0.593E+02 ort(H,U,f) =-0.142E+02 0.237E+02-0.634E+01
CGA:  12    -0.117216255965E+04   -0.73979E+01   -0.18132E+02  2944   0.160E+03 0.320E+01
 gam= 0.952 trial= 0.345  step= 0.146 mean= 0.345
 gam= 0.000 g(H,U,f)=  0.393E+02 0.189E+03 0.130E+03 ort(H,U,f) =-0.160E+02-0.647E+02-0.636E+02
CGA:  13    -0.117145657541E+04    0.70598E+00   -0.11884E+02  2944   0.359E+03-0.144E+03
 gam= 0.000 trial= 0.335  step= 0.159 mean= 0.335
 gam= 0.242 g(H,U,f)=  0.219E+02 0.381E+02 0.270E+02 ort(H,U,f) =-0.146E+02-0.803E+01-0.131E+01
CGA:  14    -0.117465794737E+04   -0.32014E+01   -0.28541E+02  2944   0.870E+02-0.239E+02
 gam= 0.242 trial= 0.326  step= 0.119 mean= 0.326
 gam= 0.000 g(H,U,f)=  0.355E+02 0.196E+03 0.189E+03 ort(H,U,f) =-0.983E+01-0.853E+02-0.158E+03
CGA:  15    -0.117113482540E+04    0.35231E+01   -0.48379E+01  2944   0.421E+03-0.253E+03
 gam= 0.000 trial= 0.316  step= 0.149 mean= 0.316
 gam= 0.236 g(H,U,f)=  0.319E+02 0.500E+02 0.176E+02 ort(H,U,f) =-0.263E+02-0.171E+02-0.387E+01
CGA:  16    -0.117246910662E+04   -0.13343E+01   -0.31409E+02  2944   0.995E+02-0.473E+02
 gam= 0.236 trial= 0.308  step= 0.121 mean= 0.308
 gam= 0.000 g(H,U,f)=  0.192E+02 0.678E+02 0.108E+03 ort(H,U,f) =-0.121E+02-0.792E+02-0.190E+03
CGA:  17    -0.117707798984E+04   -0.46089E+01   -0.53453E+01  2944   0.195E+03-0.281E+03
 gam= 0.000 trial= 0.298  step= 0.132 mean= 0.298
 gam= 0.260 g(H,U,f)=  0.195E+02 0.271E+02 0.409E+01 ort(H,U,f) =-0.115E+02-0.822E+01 0.105E+01
CGA:  18    -0.117642400484E+04    0.65398E+00   -0.12823E+02  2944   0.507E+02-0.186E+02
 gam= 0.260 trial= 0.290  step= 0.091 mean= 0.290
 gam= 0.000 g(H,U,f)=  0.153E+02 0.884E+02 0.145E+03 ort(H,U,f) =-0.111E+02-0.568E+02-0.150E+03
CGA:  19    -0.117799997232E+04   -0.15760E+01   -0.20831E+01  2944   0.248E+03-0.218E+03
 gam= 0.000 trial= 0.280  step= 0.125 mean= 0.280
 gam= 0.307 g(H,U,f)=  0.234E+02 0.383E+02 0.144E+02 ort(H,U,f) =-0.151E+02-0.150E+02-0.255E+01
CGA:  20    -0.117531063323E+04    0.26893E+01   -0.15578E+02  2944   0.761E+02-0.326E+02
 gam= 0.307 trial= 0.272  step= 0.100 mean= 0.272
 gam= 0.000 g(H,U,f)=  0.171E+02 0.937E+02 0.823E+02 ort(H,U,f) =-0.140E+02-0.795E+02-0.973E+02
CGA:  21    -0.117717935142E+04   -0.18687E+01   -0.32948E+01  2944   0.193E+03-0.191E+03
 gam= 0.000 trial= 0.264  step= 0.113 mean= 0.264
 gam= 0.260 g(H,U,f)=  0.216E+02 0.252E+02 0.352E+01 ort(H,U,f) =-0.167E+02-0.181E+02-0.321E+01
CGA:  22    -0.117619004737E+04    0.98930E+00   -0.10919E+02  2944   0.503E+02-0.380E+02
 gam= 0.260 trial= 0.256  step= 0.088 mean= 0.256
 gam= 0.000 g(H,U,f)=  0.148E+02 0.965E+02 0.128E+03 ort(H,U,f) =-0.113E+02-0.335E+02-0.129E+03
CGA:  23    -0.117831611907E+04   -0.21261E+01   -0.17731E+01  2944   0.239E+03-0.173E+03
 gam= 0.000 trial= 0.248  step= 0.111 mean= 0.248
 gam= 0.214 g(H,U,f)=  0.218E+02 0.264E+02 0.284E+01 ort(H,U,f) =-0.146E+02-0.155E+02-0.144E+01
CGA:  24    -0.117618533076E+04    0.21308E+01   -0.13274E+02  2944   0.511E+02-0.316E+02
 gam= 0.214 trial= 0.241  step= 0.074 mean= 0.241
 gam= 0.000 g(H,U,f)=  0.105E+02 0.727E+02 0.110E+03 ort(H,U,f) =-0.101E+02-0.823E+02-0.158E+03
CGA:  25    -0.117988542272E+04   -0.37001E+01   -0.16337E+01  2944   0.194E+03-0.250E+03
 gam= 0.000 trial= 0.233  step= 0.099 mean= 0.233
 gam= 0.306 g(H,U,f)=  0.194E+02 0.327E+02 0.718E+01 ort(H,U,f) =-0.113E+02-0.168E+02-0.365E+01
CGA:  26    -0.117689039734E+04    0.29950E+01   -0.96261E+01  2944   0.592E+02-0.317E+02
 gam= 0.306 trial= 0.226  step= 0.079 mean= 0.226
 gam= 0.000 g(H,U,f)=  0.105E+02 0.631E+02 0.807E+02 ort(H,U,f) =-0.114E+02-0.597E+02-0.911E+02
CGA:  27    -0.117976045717E+04   -0.28701E+01   -0.19497E+01  2944   0.154E+03-0.162E+03
 gam= 0.000 trial= 0.219  step= 0.091 mean= 0.219
 gam= 0.333 g(H,U,f)=  0.183E+02 0.286E+02 0.447E+01 ort(H,U,f) =-0.125E+02-0.196E+02-0.343E+01
CGA:  28    -0.117721618163E+04    0.25443E+01   -0.69957E+01  2944   0.513E+02-0.356E+02
 gam= 0.333 trial= 0.212  step= 0.066 mean= 0.212
 gam= 0.000 g(H,U,f)=  0.161E+01 0.179E+02 0.245E+02 ort(H,U,f) =-0.268E+01-0.408E+02-0.709E+02
CGA:  29    -0.118336332053E+04   -0.61471E+01   -0.12937E+01  2944   0.440E+02-0.114E+03
 gam= 0.000 trial= 0.205  step= 0.068 mean= 0.205
 gam= 0.000 g(H,U,f)=  0.413E+01 0.397E+02 0.693E+02 ort(H,U,f) =-0.174E+01-0.178E+02-0.252E+02
CGA:  30    -0.118248656438E+04    0.87676E+00   -0.14876E+01  2944   0.113E+03-0.448E+02
 gam= 0.000 trial= 0.198  step= 0.074 mean= 0.198
 gam= 0.000 g(H,U,f)=  0.119E+02 0.540E+02 0.738E+02 ort(H,U,f) =-0.663E+01-0.276E+02-0.389E+02
CGA:  31    -0.117913330255E+04    0.33533E+01   -0.41810E+01  2944   0.140E+03-0.731E+02
 gam= 0.000 trial= 0.192  step= 0.079 mean= 0.192
 gam= 0.428 g(H,U,f)=  0.163E+02 0.358E+02 0.773E+01 ort(H,U,f) =-0.135E+02-0.266E+02-0.565E+01
CGA:  32    -0.117789398831E+04    0.12393E+01   -0.55341E+01  2944   0.598E+02-0.457E+02
 gam= 0.428 trial= 0.186  step= 0.063 mean= 0.186
 gam= 0.000 g(H,U,f)=  0.396E+00 0.280E+01 0.236E+01 ort(H,U,f) = 0.942E+00 0.160E+02 0.187E+02
CGA:  33    -0.118398508884E+04   -0.60911E+01   -0.12684E+01  2944   0.556E+01 0.356E+02
 gam= 0.000 trial= 0.180  step= 0.025 mean= 0.180
 gam= 0.228 g(H,U,f)=  0.190E+00 0.856E+00 0.220E+00 ort(H,U,f) = 0.193E+00-0.129E+00-0.314E+00
CGA:  34    -0.118405281232E+04   -0.67723E-01   -0.69040E-01  2944   0.127E+01-0.250E+00
 gam= 0.228 trial= 0.172  step= 0.083 mean= 0.172
 gam= 0.710 g(H,U,f)=  0.149E+00 0.621E+00 0.129E+00 ort(H,U,f) = 0.915E-01-0.375E-01-0.680E-01
CGA:  35    -0.118410228104E+04   -0.49469E-01   -0.50138E-01  2944   0.899E+00-0.140E-01
 gam= 0.710 trial= 0.168  step= 0.193 mean= 0.168
 gam= 1.913 g(H,U,f)=  0.266E+00 0.116E+01 0.288E+00 ort(H,U,f) = 0.678E-01-0.234E-01-0.414E-01
CGA:  36    -0.118418800010E+04   -0.85719E-01   -0.85663E-01  2944   0.172E+01 0.295E-02
 gam= 1.913 trial= 0.169  step= 0.087 mean= 0.169
 gam= 2.117 g(H,U,f)=  0.303E+00 0.289E+01 0.444E+00 ort(H,U,f) = 0.111E+00-0.189E+00 0.255E-01
CGA:  37    -0.118425888036E+04   -0.70880E-01   -0.75263E-01  2944   0.364E+01-0.520E-01
 gam= 2.117 trial= 0.165  step= 0.068 mean= 0.165
 gam= 0.349 g(H,U,f)=  0.214E+00 0.937E+00 0.120E+00 ort(H,U,f) =-0.796E-01 0.499E+00-0.341E-01
CGA:  38    -0.118438692449E+04   -0.12804E+00   -0.11994E+00  2944   0.127E+01 0.385E+00
 gam= 0.349 trial= 0.160  step= 0.063 mean= 0.160
 gam= 0.738 g(H,U,f)=  0.120E+00 0.602E+00 0.216E+00 ort(H,U,f) = 0.664E-01-0.240E-01-0.168E+00
CGA:  39    -0.118442423169E+04   -0.37307E-01   -0.44252E-01  2944   0.938E+00-0.125E+00
 gam= 0.738 trial= 0.155  step= 0.058 mean= 0.155
 gam= 0.237 g(H,U,f)=  0.753E-01 0.119E+00 0.286E-01 ort(H,U,f) = 0.381E-01-0.684E-01 0.119E-01
CGA:  40    -0.118444816063E+04   -0.23929E-01   -0.24659E-01  2944   0.222E+00-0.184E-01
 gam= 0.237 trial= 0.150  step= 0.101 mean= 0.150
 gam= 1.456 g(H,U,f)=  0.720E-01 0.201E+00 0.511E-01 ort(H,U,f) = 0.594E-01-0.550E-01-0.405E-02
CGA:  41    -0.118445882162E+04   -0.10661E-01   -0.11011E-01  2944   0.324E+00 0.385E-03
 gam= 1.456 trial= 0.148  step= 0.082 mean= 0.148
 gam= 0.417 g(H,U,f)=  0.497E-01 0.660E-01 0.195E-01 ort(H,U,f) = 0.773E-01-0.532E-01-0.305E-01
CGA:  42    -0.118447129740E+04   -0.12476E-01   -0.13275E-01  2944   0.135E+00-0.643E-02
 gam= 0.417 trial= 0.145  step= 0.164 mean= 0.145
 gam= 0.592 g(H,U,f)=  0.229E-01 0.528E-01 0.420E-02 ort(H,U,f) = 0.119E-01-0.127E-01-0.252E-02
CGA:  43    -0.118448207379E+04   -0.10776E-01   -0.10826E-01  2944   0.800E-01-0.334E-02
 gam= 0.592 trial= 0.146  step= 0.141 mean= 0.146
 gam= 0.449 g(H,U,f)=  0.163E-01 0.183E-01 0.131E-02 ort(H,U,f) = 0.156E-01-0.136E-01-0.204E-03
CGA:  44    -0.118448758103E+04   -0.55072E-02   -0.55154E-02  2944   0.359E-01 0.181E-02
 gam= 0.449 trial= 0.145  step= 0.293 mean= 0.145
 gam= 0.739 g(H,U,f)=  0.104E-01 0.142E-01 0.198E-02 ort(H,U,f) = 0.682E-02-0.395E-02-0.892E-03
CGA:  45    -0.118449310636E+04   -0.55253E-02   -0.53725E-02  2944   0.265E-01 0.197E-02
 gam= 0.739 trial= 0.153  step= 0.201 mean= 0.153
 gam= 1.757 g(H,U,f)=  0.105E-01 0.275E-01 0.862E-02 ort(H,U,f) = 0.646E-02-0.387E-02-0.223E-02
CGA:  46    -0.118449593167E+04   -0.28253E-02   -0.28113E-02  2944   0.466E-01 0.356E-03
 gam= 1.757 trial= 0.155  step= 0.073 mean= 0.155
 gam= 0.555 g(H,U,f)=  0.843E-02 0.142E-01 0.324E-02 ort(H,U,f) = 0.129E-01-0.102E-01-0.305E-02
CGA:  47    -0.118449766054E+04   -0.17289E-02   -0.17262E-02  2944   0.259E-01-0.269E-03
 gam= 0.555 trial= 0.151  step= 0.194 mean= 0.151
 gam= 0.528 g(H,U,f)=  0.563E-02 0.749E-02 0.555E-03 ort(H,U,f) = 0.509E-02-0.427E-02-0.621E-03
CGA:  48    -0.118450016289E+04   -0.25024E-02   -0.24936E-02  2944   0.137E-01 0.202E-03
 gam= 0.528 trial= 0.153  step= 0.261 mean= 0.153
 gam= 0.561 g(H,U,f)=  0.348E-02 0.392E-02 0.266E-03 ort(H,U,f) = 0.242E-02-0.230E-02-0.144E-03
CGA:  49    -0.118450196228E+04   -0.17994E-02   -0.17991E-02  2944   0.766E-02-0.242E-04
 gam= 0.561 trial= 0.159  step= 0.217 mean= 0.159
 gam= 1.451 g(H,U,f)=  0.233E-02 0.708E-02 0.172E-02 ort(H,U,f) = 0.219E-02-0.192E-02-0.323E-03
CGA:  50    -0.118450279351E+04   -0.83122E-03   -0.83196E-03  2944   0.111E-01-0.479E-04
 gam= 1.451 trial= 0.161  step= 0.067 mean= 0.161
 gam= 0.516 g(H,U,f)=  0.200E-02 0.304E-02 0.692E-03 ort(H,U,f) = 0.302E-02-0.239E-02-0.672E-03
CGA:  51    -0.118450316671E+04   -0.37320E-03   -0.37079E-03  2944   0.574E-02-0.500E-04
 gam= 0.516 trial= 0.157  step= 0.202 mean= 0.157
 gam= 0.520 g(H,U,f)=  0.130E-02 0.142E-02 0.262E-03 ort(H,U,f) = 0.124E-02-0.104E-02-0.250E-03
CGA:  52    -0.118450374349E+04   -0.57678E-03   -0.57775E-03  2944   0.299E-02-0.473E-04
 gam= 0.520 trial= 0.159  step= 0.266 mean= 0.159
 gam= 0.708 g(H,U,f)=  0.871E-03 0.108E-02 0.158E-03 ort(H,U,f) = 0.586E-03-0.494E-03-0.907E-04
CGA:  53    -0.118450413702E+04   -0.39353E-03   -0.39335E-03  2944   0.211E-02 0.984E-06
 gam= 0.708 trial= 0.164  step= 0.201 mean= 0.164
 gam= 1.158 g(H,U,f)=  0.636E-03 0.170E-02 0.110E-03 ort(H,U,f) = 0.614E-03-0.558E-03-0.562E-04
CGA:  54    -0.118450434956E+04   -0.21254E-03   -0.21255E-03  2944   0.245E-02-0.332E-06
 gam= 1.158 trial= 0.166  step= 0.154 mean= 0.166
 gam= 1.145 g(H,U,f)=  0.541E-03 0.178E-02 0.486E-03 ort(H,U,f) = 0.553E-03-0.429E-03-0.116E-03
CGA:  55    -0.118450453800E+04   -0.18844E-03   -0.18848E-03  2944   0.280E-02 0.837E-05
 gam= 1.145 trial= 0.166  step= 0.070 mean= 0.166
 gam= 0.463 g(H,U,f)=  0.520E-03 0.643E-03 0.135E-03 ort(H,U,f) = 0.629E-03-0.438E-03-0.179E-03
CGA:  56    -0.118450463605E+04   -0.98047E-04   -0.98409E-04  2944   0.130E-02 0.121E-04
 gam= 0.463 trial= 0.161  step= 0.240 mean= 0.161
 gam= 0.747 g(H,U,f)=  0.382E-03 0.539E-03 0.493E-04 ort(H,U,f) = 0.302E-03-0.252E-03-0.287E-04
CGA:  57    -0.118450479331E+04   -0.15727E-03   -0.15643E-03  2944   0.970E-03 0.215E-04
 gam= 0.747 trial= 0.165  step= 0.219 mean= 0.165
 gam= 0.583 g(H,U,f)=  0.290E-03 0.249E-03 0.259E-04 ort(H,U,f) = 0.206E-03-0.162E-03-0.185E-04
CGA:  58    -0.118450490180E+04   -0.10849E-03   -0.10781E-03  2944   0.565E-03 0.249E-04
 gam= 0.583 trial= 0.167  step= 0.315 mean= 0.167
 gam= 1.027 g(H,U,f)=  0.191E-03 0.309E-03 0.811E-04 ort(H,U,f) = 0.144E-03-0.936E-04-0.228E-04
CGA:  59    -0.118450499502E+04   -0.93220E-04   -0.91206E-04  2944   0.581E-03 0.273E-04
 gam= 1.027 trial= 0.175  step= 0.083 mean= 0.175
 gam= 1.005 g(H,U,f)=  0.164E-03 0.347E-03 0.729E-04 ort(H,U,f) = 0.240E-03-0.181E-03-0.503E-04
CGA:  60    -0.118450501977E+04   -0.24752E-04   -0.25148E-04  2944   0.583E-03 0.865E-05
 gam= 1.005 trial= 0.170  step= 0.159 mean= 0.170
 gam= 0.625 g(H,U,f)=  0.135E-03 0.187E-03 0.424E-04 ort(H,U,f) = 0.174E-03-0.129E-03-0.277E-04
CGA:  61    -0.118450506669E+04   -0.46916E-04   -0.47010E-04  2944   0.364E-03 0.172E-04
 gam= 0.625 trial= 0.170  step= 0.225 mean= 0.170
 gam= 0.635 g(H,U,f)=  0.112E-03 0.961E-04 0.230E-04 ort(H,U,f) = 0.113E-03-0.776E-04-0.176E-04
CGA:  62    -0.118450510931E+04   -0.42622E-04   -0.42141E-04  2944   0.231E-03 0.173E-04
 gam= 0.635 trial= 0.172  step= 0.277 mean= 0.172
 gam= 2.680 g(H,U,f)=  0.899E-04 0.402E-03 0.129E-03 ort(H,U,f) = 0.105E-03-0.699E-04-0.250E-04
CGA:  63    -0.118450514342E+04   -0.34107E-04   -0.33573E-04  2944   0.620E-03 0.102E-04
 gam= 2.680 trial= 0.178  step= 0.081 mean= 0.178
 gam= 0.000 g(H,U,f)=  0.898E-04 0.221E-03 0.249E-04 ort(H,U,f) = 0.210E-03-0.175E-03-0.272E-04
SDA:  64    -0.118450516941E+04   -0.25996E-04   -0.26375E-04  2944   0.336E-03 0.784E-05
 gam= 0.000 trial= 0.173  step= 0.063 mean= 0.173
 gam= 0.516 g(H,U,f)=  0.663E-04 0.809E-04 0.261E-04 ort(H,U,f) = 0.629E-04-0.484E-04-0.151E-04
CGA:  65    -0.118450518009E+04   -0.10673E-04   -0.10630E-04  2944   0.173E-03-0.671E-06
 gam= 0.516 trial= 0.167  step= 0.115 mean= 0.167
 gam= 0.941 g(H,U,f)=  0.558E-04 0.888E-04 0.185E-04 ort(H,U,f) = 0.625E-04-0.483E-04-0.161E-04
CGA:  66    -0.118450519004E+04   -0.99510E-05   -0.99067E-05  2944   0.163E-03-0.192E-05
 gam= 0.941 trial= 0.165  step= 0.235 mean= 0.165
 gam= 0.972 g(H,U,f)=  0.611E-04 0.860E-04 0.115E-04 ort(H,U,f) = 0.397E-04-0.425E-04-0.490E-05
CGA:  67    -0.118450520871E+04   -0.18669E-04   -0.18938E-04  2944   0.159E-03-0.775E-05
 gam= 0.972 trial= 0.168  step= 0.299 mean= 0.168
 gam= 0.869 g(H,U,f)=  0.599E-04 0.624E-04 0.154E-04 ort(H,U,f) = 0.135E-04-0.184E-04-0.630E-05
CGA:  68    -0.118450523054E+04   -0.21832E-04   -0.22553E-04  2944   0.138E-03-0.111E-04
 gam= 0.869 trial= 0.175  step= 0.150 mean= 0.175
 gam= 1.415 g(H,U,f)=  0.534E-04 0.110E-03 0.319E-04 ort(H,U,f) = 0.380E-04-0.336E-04-0.900E-05
CGA:  69    -0.118450524020E+04   -0.96617E-05   -0.96074E-05  2944   0.195E-03-0.462E-05
 gam= 1.415 trial= 0.173  step= 0.081 mean= 0.173
 final diagonalization
   1 F= -.11845052E+04 E0= -.11844854E+04  d E =-.118451E+04  mag=   118.0000
quench:  g(F)=  0.000E+00 g(S)=  0.000E+00 dE (1.order)= 0.000E+00
 bond charge predicted
 wavefunctions rotated
       N       E                     dE             d eps       ncg     rms          ort
 gam= 0.000 g(H,U,f)=  0.195E-01 0.107E+00 0.422E-01 ort(H,U,f) = 0.000E+00 0.000E+00 0.000E+00
SDA:   1    -0.118450947306E+04   -0.42425E-02    0.00000E+00  2944   0.169E+00 0.000E+00
 gam= 0.000 trial= 0.169  step= 0.039 mean= 0.169
 gam= 0.121 g(H,U,f)=  0.998E-02 0.862E-02 0.189E-02 ort(H,U,f) = 0.954E-02-0.458E-02-0.291E-02
CGA:   2    -0.118451280573E+04   -0.33327E-02   -0.32821E-02  2944   0.205E-01 0.205E-02
 gam= 0.121 trial= 0.162  step= 0.126 mean= 0.162
 gam= 0.598 g(H,U,f)=  0.709E-02 0.434E-02 0.827E-03 ort(H,U,f) = 0.650E-02-0.536E-02-0.109E-02
CGA:   3    -0.118451410481E+04   -0.12991E-02   -0.13029E-02  2944   0.123E-01 0.535E-04
 gam= 0.598 trial= 0.161  step= 0.278 mean= 0.161
 gam= 1.179 g(H,U,f)=  0.340E-02 0.846E-02 0.259E-02 ort(H,U,f) = 0.248E-02-0.209E-02-0.363E-03
CGA:   4    -0.118451581281E+04   -0.17080E-02   -0.17059E-02  2944   0.145E-01 0.348E-04
 gam= 1.179 trial= 0.166  step= 0.064 mean= 0.166
 gam= 0.438 g(H,U,f)=  0.210E-02 0.354E-02 0.680E-03 ort(H,U,f) = 0.279E-02-0.189E-02-0.891E-03
CGA:   5    -0.118451627436E+04   -0.46155E-03   -0.46114E-03  2944   0.632E-02 0.998E-05
 gam= 0.438 trial= 0.161  step= 0.092 mean= 0.161
 gam= 0.401 g(H,U,f)=  0.124E-02 0.118E-02 0.122E-03 ort(H,U,f) = 0.138E-02-0.128E-02-0.108E-03
CGA:   6    -0.118451656703E+04   -0.29267E-03   -0.29226E-03  2944   0.253E-02-0.375E-05
 gam= 0.401 trial= 0.158  step= 0.189 mean= 0.158
 gam= 0.461 g(H,U,f)=  0.589E-03 0.487E-03 0.923E-04 ort(H,U,f) = 0.419E-03-0.350E-03-0.811E-04
CGA:   7    -0.118451680670E+04   -0.23966E-03   -0.23983E-03  2944   0.117E-02-0.117E-04
 gam= 0.461 trial= 0.159  step= 0.184 mean= 0.159
 gam= 1.205 g(H,U,f)=  0.266E-03 0.951E-03 0.190E-03 ort(H,U,f) = 0.232E-03-0.196E-03-0.482E-04
CGA:   8    -0.118451691343E+04   -0.10673E-03   -0.10690E-03  2944   0.141E-02-0.127E-04
 gam= 1.205 trial= 0.161  step= 0.059 mean= 0.161
 gam= 0.323 g(H,U,f)=  0.177E-03 0.224E-03 0.532E-04 ort(H,U,f) = 0.216E-03-0.146E-03-0.738E-04
CGA:   9    -0.118451695464E+04   -0.41206E-04   -0.41015E-04  2944   0.455E-03-0.430E-05
 gam= 0.323 trial= 0.156  step= 0.154 mean= 0.156
 gam= 0.404 g(H,U,f)=  0.106E-03 0.720E-04 0.570E-05 ort(H,U,f) = 0.791E-04-0.739E-04-0.836E-05
CGA:  10    -0.118451698957E+04   -0.34932E-04   -0.34930E-04  2944   0.184E-03-0.314E-05
 gam= 0.404 trial= 0.155  step= 0.334 mean= 0.155
 gam= 1.217 g(H,U,f)=  0.666E-04 0.123E-03 0.345E-04 ort(H,U,f) = 0.293E-04-0.244E-04-0.531E-05
CGA:  11    -0.118451702005E+04   -0.30481E-04   -0.30517E-04  2944   0.224E-03-0.408E-06
 gam= 1.217 trial= 0.164  step= 0.078 mean= 0.164
 gam= 0.796 g(H,U,f)=  0.588E-04 0.924E-04 0.268E-04 ort(H,U,f) = 0.599E-04-0.377E-04-0.213E-04
CGA:  12    -0.118451702873E+04   -0.86823E-05   -0.87199E-05  2944   0.178E-03 0.819E-06
 gam= 0.796 trial= 0.160  step= 0.124 mean= 0.160
 gam= 0.651 g(H,U,f)=  0.508E-04 0.592E-04 0.592E-05 ort(H,U,f) = 0.537E-04-0.468E-04-0.582E-05
CGA:  13    -0.118451703982E+04   -0.11091E-04   -0.11110E-04  2944   0.116E-03 0.110E-05
 gam= 0.651 trial= 0.158  step= 0.232 mean= 0.158
 gam= 1.111 g(H,U,f)=  0.437E-04 0.759E-04 0.925E-05 ort(H,U,f) = 0.389E-04-0.343E-04-0.390E-05
CGA:  14    -0.118451705337E+04   -0.13549E-04   -0.13525E-04  2944   0.129E-03 0.671E-06
 gam= 1.111 trial= 0.162  step= 0.213 mean= 0.162
 gam= 0.497 g(H,U,f)=  0.343E-04 0.260E-04 0.380E-05 ort(H,U,f) = 0.250E-04-0.217E-04-0.283E-05
CGA:  15    -0.118451706716E+04   -0.13787E-04   -0.13774E-04  2944   0.641E-04 0.536E-06
 gam= 0.497 trial= 0.165  step= 0.294 mean= 0.165
 gam= 1.205 g(H,U,f)=  0.281E-04 0.375E-04 0.116E-04 ort(H,U,f) = 0.193E-04-0.179E-04-0.349E-05
CGA:  16    -0.118451707648E+04   -0.93199E-05   -0.94563E-05  2944   0.772E-04-0.211E-05
 gam= 1.205 trial= 0.171  step= 0.102 mean= 0.171
 final diagonalization
   2 F= -.11845171E+04 E0= -.11844973E+04  d E =-.118363E-01  mag=   118.0000
quench:  g(F)=  0.000E+00 g(S)=  0.000E+00 dE (1.order)= 0.000E+00
 bond charge predicted
 wavefunctions rotated
       N       E                     dE             d eps       ncg     rms          ort
 gam= 0.000 g(H,U,f)=  0.513E+01 0.662E+00 0.371E+00 ort(H,U,f) = 0.000E+00 0.000E+00 0.000E+00
SDA:   1    -0.118266483489E+04    0.18522E+01    0.00000E+00  2944   0.617E+01 0.000E+00
 gam= 0.000 trial= 0.168  step= 0.193 mean= 0.168
 gam= 2.359 g(H,U,f)=  0.342E+01 0.918E+01 0.194E+01 ort(H,U,f) = 0.312E+01-0.227E+01-0.504E+00
CGA:   2    -0.118326474499E+04   -0.59991E+00   -0.59372E+00  2944   0.145E+02 0.342E+00
 gam= 2.359 trial= 0.169  step= 0.100 mean= 0.169
 gam= 0.546 g(H,U,f)=  0.191E+01 0.492E+01 0.112E+01 ort(H,U,f) = 0.303E+01-0.235E+01-0.798E+00
CGA:   3    -0.118402484099E+04   -0.76010E+00   -0.76927E+00  2944   0.795E+01-0.124E+00
 gam= 0.546 trial= 0.165  step= 0.093 mean= 0.165
 gam= 0.203 g(H,U,f)=  0.114E+01 0.407E+00 0.630E-01 ort(H,U,f) = 0.751E+00-0.832E+00-0.149E+00
CGA:   4    -0.118436713277E+04   -0.34229E+00   -0.36621E+00  2944   0.161E+01-0.230E+00
 gam= 0.203 trial= 0.162  step= 0.233 mean= 0.162
 gam= 1.277 g(H,U,f)=  0.423E+00 0.139E+01 0.244E+00 ort(H,U,f) = 0.364E+00-0.353E+00-0.449E-01
CGA:   5    -0.118454763031E+04   -0.18050E+00   -0.18208E+00  2944   0.206E+01-0.348E-01
 gam= 1.277 trial= 0.165  step= 0.061 mean= 0.165
 gam= 0.390 g(H,U,f)=  0.275E+00 0.423E+00 0.104E+00 ort(H,U,f) = 0.343E+00-0.269E+00-0.130E+00
CGA:   6    -0.118460728139E+04   -0.59651E-01   -0.61667E-01  2944   0.802E+00-0.559E-01
 gam= 0.390 trial= 0.160  step= 0.118 mean= 0.160
 gam= 0.350 g(H,U,f)=  0.144E+00 0.120E+00 0.169E-01 ort(H,U,f) = 0.133E+00-0.120E+00-0.155E-01
CGA:   7    -0.118465365195E+04   -0.46371E-01   -0.46047E-01  2944   0.280E+00-0.263E-02
 gam= 0.350 trial= 0.158  step= 0.195 mean= 0.158
 gam= 0.553 g(H,U,f)=  0.550E-01 0.811E-01 0.190E-01 ort(H,U,f) = 0.444E-01-0.361E-01-0.120E-01
CGA:   8    -0.118468078506E+04   -0.27133E-01   -0.27231E-01  2944   0.155E+00-0.369E-02
 gam= 0.553 trial= 0.160  step= 0.145 mean= 0.160
 gam= 0.557 g(H,U,f)=  0.240E-01 0.455E-01 0.170E-01 ort(H,U,f) = 0.176E-01-0.769E-02-0.944E-02
CGA:   9    -0.118469184798E+04   -0.11063E-01   -0.11071E-01  2944   0.864E-01 0.439E-03
 gam= 0.557 trial= 0.159  step= 0.064 mean= 0.159
 gam= 0.547 g(H,U,f)=  0.173E-01 0.238E-01 0.623E-02 ort(H,U,f) = 0.191E-01-0.121E-01-0.685E-02
CGA:  10    -0.118469464013E+04   -0.27922E-02   -0.27850E-02  2944   0.473E-01 0.152E-03
 gam= 0.547 trial= 0.154  step= 0.167 mean= 0.154
 gam= 0.612 g(H,U,f)=  0.105E-01 0.168E-01 0.164E-02 ort(H,U,f) = 0.793E-02-0.690E-02-0.133E-02
CGA:  11    -0.118469859809E+04   -0.39580E-02   -0.39615E-02  2944   0.290E-01-0.296E-03
 gam= 0.612 trial= 0.155  step= 0.192 mean= 0.155
 gam= 0.550 g(H,U,f)=  0.571E-02 0.915E-02 0.107E-02 ort(H,U,f) = 0.228E-02-0.148E-02-0.588E-03
CGA:  12    -0.118470136885E+04   -0.27708E-02   -0.27657E-02  2944   0.159E-01 0.206E-03
 gam= 0.550 trial= 0.157  step= 0.130 mean= 0.157
 gam= 0.999 g(H,U,f)=  0.380E-02 0.873E-02 0.339E-02 ort(H,U,f) = 0.255E-02-0.185E-02-0.663E-03
CGA:  13    -0.118470240716E+04   -0.10383E-02   -0.10398E-02  2944   0.159E-01 0.425E-04
 gam= 0.999 trial= 0.155  step= 0.075 mean= 0.155
 gam= 0.520 g(H,U,f)=  0.308E-02 0.388E-02 0.131E-02 ort(H,U,f) = 0.311E-02-0.132E-02-0.177E-02
CGA:  14    -0.118470300496E+04   -0.59780E-03   -0.59663E-03  2944   0.827E-02 0.214E-04
 gam= 0.520 trial= 0.151  step= 0.217 mean= 0.151
 gam= 0.536 g(H,U,f)=  0.173E-02 0.236E-02 0.343E-03 ort(H,U,f) = 0.675E-03-0.430E-03-0.217E-03
CGA:  15    -0.118470390390E+04   -0.89894E-03   -0.89783E-03  2944   0.444E-02 0.279E-04
 gam= 0.536 trial= 0.155  step= 0.164 mean= 0.155
 gam= 0.642 g(H,U,f)=  0.117E-02 0.130E-02 0.373E-03 ort(H,U,f) = 0.730E-03-0.559E-03-0.187E-03
CGA:  16    -0.118470426952E+04   -0.36561E-03   -0.36571E-03  2944   0.285E-02-0.165E-04
 gam= 0.642 trial= 0.155  step= 0.136 mean= 0.155
 gam= 1.498 g(H,U,f)=  0.875E-03 0.235E-02 0.104E-02 ort(H,U,f) = 0.872E-03-0.472E-03-0.405E-03
CGA:  17    -0.118470446301E+04   -0.19349E-03   -0.19346E-03  2944   0.426E-02-0.517E-05
 gam= 1.498 trial= 0.154  step= 0.086 mean= 0.154
 gam= 0.346 g(H,U,f)=  0.630E-03 0.756E-03 0.892E-04 ort(H,U,f) = 0.851E-03-0.732E-03-0.126E-03
CGA:  18    -0.118470464735E+04   -0.18434E-03   -0.18406E-03  2944   0.148E-02-0.712E-05
 gam= 0.346 trial= 0.151  step= 0.192 mean= 0.151
 gam= 0.586 g(H,U,f)=  0.350E-03 0.469E-03 0.451E-04 ort(H,U,f) = 0.299E-03-0.270E-03-0.338E-04
CGA:  19    -0.118470478849E+04   -0.14114E-03   -0.14125E-03  2944   0.864E-03-0.470E-05
 gam= 0.586 trial= 0.153  step= 0.170 mean= 0.153
 gam= 0.666 g(H,U,f)=  0.224E-03 0.279E-03 0.728E-04 ort(H,U,f) = 0.208E-03-0.183E-03-0.192E-04
CGA:  20    -0.118470486185E+04   -0.73356E-04   -0.73305E-04  2944   0.576E-03 0.580E-05
 gam= 0.666 trial= 0.154  step= 0.091 mean= 0.154
 gam= 1.109 g(H,U,f)=  0.186E-03 0.324E-03 0.128E-03 ort(H,U,f) = 0.252E-03-0.167E-03-0.808E-04
CGA:  21    -0.118470488799E+04   -0.26138E-04   -0.26284E-04  2944   0.638E-03 0.425E-05
 gam= 1.109 trial= 0.151  step= 0.161 mean= 0.151
 gam= 0.527 g(H,U,f)=  0.119E-03 0.178E-03 0.394E-04 ort(H,U,f) = 0.149E-03-0.115E-03-0.233E-04
CGA:  22    -0.118470493987E+04   -0.51878E-04   -0.51823E-04  2944   0.337E-03 0.101E-04
 gam= 0.527 trial= 0.151  step= 0.143 mean= 0.151
 gam= 0.430 g(H,U,f)=  0.843E-04 0.477E-04 0.127E-04 ort(H,U,f) = 0.809E-04-0.593E-04-0.149E-04
CGA:  23    -0.118470496431E+04   -0.24440E-04   -0.24468E-04  2944   0.145E-03 0.671E-05
 gam= 0.430 trial= 0.151  step= 0.293 mean= 0.151
 gam= 2.512 g(H,U,f)=  0.646E-04 0.207E-03 0.919E-04 ort(H,U,f) = 0.524E-04-0.331E-04-0.159E-04
CGA:  24    -0.118470498619E+04   -0.21883E-04   -0.21642E-04  2944   0.363E-03 0.338E-05
 gam= 2.512 trial= 0.158  step= 0.068 mean= 0.158
 gam= 0.371 g(H,U,f)=  0.556E-04 0.675E-04 0.116E-04 ort(H,U,f) = 0.843E-04-0.658E-04-0.163E-04
CGA:  25    -0.118470499874E+04   -0.12551E-04   -0.12656E-04  2944   0.135E-03 0.216E-05
 gam= 0.371 trial= 0.153  step= 0.163 mean= 0.153
 gam= 0.737 g(H,U,f)=  0.424E-04 0.503E-04 0.656E-05 ort(H,U,f) = 0.373E-04-0.304E-04-0.505E-05
CGA:  26    -0.118470500979E+04   -0.11047E-04   -0.11037E-04  2944   0.992E-04 0.191E-05
 gam= 0.737 trial= 0.154  step= 0.211 mean= 0.154
 gam= 0.727 g(H,U,f)=  0.283E-04 0.367E-04 0.713E-05 ort(H,U,f) = 0.208E-04-0.178E-04-0.213E-05
CGA:  27    -0.118470502043E+04   -0.10640E-04   -0.10615E-04  2944   0.722E-04 0.887E-06
 gam= 0.727 trial= 0.157  step= 0.097 mean= 0.157
 gam= 1.189 g(H,U,f)=  0.233E-04 0.449E-04 0.176E-04 ort(H,U,f) = 0.271E-04-0.181E-04-0.865E-05
CGA:  28    -0.118470502394E+04   -0.35128E-05   -0.35247E-05  2944   0.858E-04 0.401E-06
 gam= 1.189 trial= 0.154  step= 0.134 mean= 0.154
 final diagonalization
   3 F= -.11847050E+04 E0= -.11846854E+04  d E =-.187947E+00  mag=   118.0000
quench:  g(F)=  0.000E+00 g(S)=  0.000E+00 dE (1.order)= 0.000E+00
 bond charge predicted
 wavefunctions rotated
       N       E                     dE             d eps       ncg     rms          ort
 gam= 0.000 g(H,U,f)=  0.171E+02 0.276E+01 0.182E+01 ort(H,U,f) = 0.000E+00 0.000E+00 0.000E+00
SDA:   1    -0.117819504920E+04    0.65100E+01    0.00000E+00  2944   0.217E+02 0.000E+00
 gam= 0.000 trial= 0.153  step= 0.130 mean= 0.153
 gam= 2.160 g(H,U,f)=  0.125E+02 0.239E+02 0.105E+02 ort(H,U,f) = 0.122E+02-0.848E+01-0.371E+01
CGA:   2    -0.117959341701E+04   -0.13984E+01   -0.14079E+01  2944   0.469E+02-0.253E-01
 gam= 2.160 trial= 0.152  step= 0.152 mean= 0.152
 gam= 0.199 g(H,U,f)=  0.656E+01 0.227E+01 0.473E+00 ort(H,U,f) = 0.124E+01-0.118E+01-0.169E+00
CGA:   3    -0.118315839502E+04   -0.35650E+01   -0.35650E+01  2944   0.931E+01-0.110E+00
 gam= 0.199 trial= 0.152  step= 0.152 mean= 0.152
 gam= 0.887 g(H,U,f)=  0.320E+01 0.328E+01 0.177E+01 ort(H,U,f) = 0.318E+01-0.187E+01-0.840E+00
CGA:   4    -0.118386549885E+04   -0.70710E+00   -0.70681E+00  2944   0.826E+01 0.472E+00
 gam= 0.887 trial= 0.152  step= 0.111 mean= 0.152
 gam= 0.974 g(H,U,f)=  0.136E+01 0.530E+01 0.138E+01 ort(H,U,f) = 0.204E+01-0.179E+01-0.354E+00
CGA:   5    -0.118435055009E+04   -0.48505E+00   -0.48208E+00  2944   0.805E+01-0.109E+00
 gam= 0.974 trial= 0.150  step= 0.060 mean= 0.150
 gam= 0.159 g(H,U,f)=  0.884E+00 0.357E+00 0.401E-01 ort(H,U,f) = 0.723E+00-0.655E+00-0.919E-01
CGA:   6    -0.118458827862E+04   -0.23773E+00   -0.23627E+00  2944   0.128E+01-0.240E-01
 gam= 0.159 trial= 0.145  step= 0.238 mean= 0.145
 gam= 1.142 g(H,U,f)=  0.350E+00 0.726E+00 0.388E+00 ort(H,U,f) = 0.277E+00-0.156E+00-0.877E-01
CGA:   7    -0.118474217192E+04   -0.15389E+00   -0.15210E+00  2944   0.146E+01 0.339E-01
 gam= 1.142 trial= 0.150  step= 0.064 mean= 0.150
 gam= 0.488 g(H,U,f)=  0.194E+00 0.400E+00 0.119E+00 ort(H,U,f) = 0.280E+00-0.169E+00-0.115E+00
CGA:   8    -0.118479015431E+04   -0.47982E-01   -0.47832E-01  2944   0.714E+00-0.427E-02
 gam= 0.488 trial= 0.145  step= 0.096 mean= 0.145
 gam= 0.288 g(H,U,f)=  0.101E+00 0.940E-01 0.106E-01 ort(H,U,f) = 0.924E-01-0.831E-01-0.886E-02
CGA:   9    -0.118482483163E+04   -0.34677E-01   -0.34035E-01  2944   0.206E+00 0.411E-03
 gam= 0.288 trial= 0.143  step= 0.197 mean= 0.143
 gam= 0.623 g(H,U,f)=  0.529E-01 0.632E-01 0.121E-01 ort(H,U,f) = 0.362E-01-0.187E-01-0.837E-02
CGA:  10    -0.118484547802E+04   -0.20646E-01   -0.20323E-01  2944   0.128E+00 0.913E-02
 gam= 0.623 trial= 0.146  step= 0.204 mean= 0.146
 gam= 0.651 g(H,U,f)=  0.271E-01 0.480E-01 0.840E-02 ort(H,U,f) = 0.965E-02-0.997E-02-0.451E-02
CGA:  11    -0.118485895732E+04   -0.13479E-01   -0.13656E-01  2944   0.835E-01-0.484E-02
 gam= 0.651 trial= 0.149  step= 0.121 mean= 0.149
 gam= 0.971 g(H,U,f)=  0.181E-01 0.438E-01 0.192E-01 ort(H,U,f) = 0.102E-01-0.179E-02-0.812E-02
CGA:  12    -0.118486381149E+04   -0.48542E-02   -0.48654E-02  2944   0.811E-01 0.267E-03
 gam= 0.971 trial= 0.147  step= 0.073 mean= 0.147
 gam= 0.427 g(H,U,f)=  0.140E-01 0.179E-01 0.270E-02 ort(H,U,f) = 0.113E-01-0.677E-02-0.414E-02
CGA:  13    -0.118486678053E+04   -0.29690E-02   -0.29488E-02  2944   0.346E-01 0.339E-03
 gam= 0.427 trial= 0.144  step= 0.250 mean= 0.144
 gam= 0.730 g(H,U,f)=  0.805E-02 0.156E-01 0.161E-02 ort(H,U,f) = 0.229E-02-0.165E-02-0.765E-03
CGA:  14    -0.118487112033E+04   -0.43398E-02   -0.43471E-02  2944   0.253E-01-0.123E-03
 gam= 0.730 trial= 0.149  step= 0.134 mean= 0.149
 gam= 0.583 g(H,U,f)=  0.559E-02 0.710E-02 0.204E-02 ort(H,U,f) = 0.252E-02-0.181E-02-0.611E-03
CGA:  15    -0.118487280235E+04   -0.16820E-02   -0.16838E-02  2944   0.147E-01 0.961E-04
 gam= 0.583 trial= 0.148  step= 0.090 mean= 0.148
 gam= 1.073 g(H,U,f)=  0.481E-02 0.731E-02 0.369E-02 ort(H,U,f) = 0.451E-02-0.218E-02-0.234E-02
CGA:  16    -0.118487346526E+04   -0.66291E-03   -0.66407E-03  2944   0.158E-01-0.116E-04
 gam= 1.073 trial= 0.145  step= 0.181 mean= 0.145
 gam= 0.443 g(H,U,f)=  0.282E-02 0.338E-02 0.804E-03 ort(H,U,f) = 0.210E-02-0.148E-02-0.644E-03
CGA:  17    -0.118487489111E+04   -0.14258E-02   -0.14262E-02  2944   0.700E-02-0.248E-04
 gam= 0.443 trial= 0.147  step= 0.155 mean= 0.147
 gam= 0.571 g(H,U,f)=  0.178E-02 0.175E-02 0.459E-03 ort(H,U,f) = 0.146E-02-0.113E-02-0.286E-03
CGA:  18    -0.118487543335E+04   -0.54224E-03   -0.54189E-03  2944   0.399E-02 0.471E-04
 gam= 0.571 trial= 0.147  step= 0.140 mean= 0.147
 gam= 1.364 g(H,U,f)=  0.125E-02 0.293E-02 0.127E-02 ort(H,U,f) = 0.141E-02-0.922E-03-0.485E-03
CGA:  19    -0.118487571495E+04   -0.28161E-03   -0.28160E-03  2944   0.545E-02 0.229E-05
 gam= 1.364 trial= 0.147  step= 0.082 mean= 0.147
 gam= 0.423 g(H,U,f)=  0.915E-03 0.119E-02 0.199E-03 ort(H,U,f) = 0.150E-02-0.126E-02-0.236E-03
CGA:  20    -0.118487593819E+04   -0.22323E-03   -0.22402E-03  2944   0.231E-02 0.554E-05
 gam= 0.423 trial= 0.144  step= 0.204 mean= 0.144
 gam= 0.448 g(H,U,f)=  0.497E-03 0.459E-03 0.766E-04 ort(H,U,f) = 0.436E-03-0.347E-03-0.591E-04
CGA:  21    -0.118487617454E+04   -0.23636E-03   -0.23541E-03  2944   0.103E-02 0.296E-04
 gam= 0.448 trial= 0.147  step= 0.171 mean= 0.147
 gam= 1.143 g(H,U,f)=  0.380E-03 0.645E-03 0.155E-03 ort(H,U,f) = 0.374E-03-0.316E-03-0.495E-04
CGA:  22    -0.118487626427E+04   -0.89729E-04   -0.89639E-04  2944   0.118E-02 0.771E-05
 gam= 1.143 trial= 0.148  step= 0.108 mean= 0.148
 gam= 1.193 g(H,U,f)=  0.324E-03 0.736E-03 0.348E-03 ort(H,U,f) = 0.480E-03-0.313E-03-0.161E-03
CGA:  23    -0.118487632842E+04   -0.64142E-04   -0.64265E-04  2944   0.141E-02 0.630E-05
 gam= 1.193 trial= 0.146  step= 0.122 mean= 0.146
 gam= 0.307 g(H,U,f)=  0.236E-03 0.158E-03 0.383E-04 ort(H,U,f) = 0.235E-03-0.168E-03-0.556E-04
CGA:  24    -0.118487641491E+04   -0.86496E-04   -0.86643E-04  2944   0.433E-03 0.114E-04
 gam= 0.307 trial= 0.145  step= 0.248 mean= 0.145
 gam= 1.071 g(H,U,f)=  0.184E-03 0.230E-03 0.492E-04 ort(H,U,f) = 0.128E-03-0.103E-03-0.227E-04
CGA:  25    -0.118487646901E+04   -0.54100E-04   -0.53991E-04  2944   0.463E-03 0.213E-05
 gam= 1.071 trial= 0.150  step= 0.178 mean= 0.150
 gam= 1.378 g(H,U,f)=  0.139E-03 0.355E-03 0.144E-03 ort(H,U,f) = 0.127E-03-0.811E-04-0.430E-04
CGA:  26    -0.118487651045E+04   -0.41435E-04   -0.41386E-04  2944   0.639E-03 0.333E-05
 gam= 1.378 trial= 0.151  step= 0.071 mean= 0.151
 gam= 0.424 g(H,U,f)=  0.110E-03 0.137E-03 0.237E-04 ort(H,U,f) = 0.139E-03-0.110E-03-0.279E-04
CGA:  27    -0.118487653333E+04   -0.22883E-04   -0.22886E-04  2944   0.271E-03 0.132E-05
 gam= 0.424 trial= 0.147  step= 0.166 mean= 0.147
 gam= 0.612 g(H,U,f)=  0.747E-04 0.768E-04 0.142E-04 ort(H,U,f) = 0.630E-04-0.516E-04-0.113E-04
CGA:  28    -0.118487655584E+04   -0.22514E-04   -0.22512E-04  2944   0.166E-03 0.171E-06
 gam= 0.612 trial= 0.148  step= 0.233 mean= 0.148
 gam= 0.787 g(H,U,f)=  0.449E-04 0.696E-04 0.160E-04 ort(H,U,f) = 0.322E-04-0.257E-04-0.580E-05
CGA:  29    -0.118487657518E+04   -0.19338E-04   -0.19304E-04  2944   0.130E-03 0.754E-06
 gam= 0.787 trial= 0.152  step= 0.096 mean= 0.152
 gam= 1.017 g(H,U,f)=  0.331E-04 0.703E-04 0.291E-04 ort(H,U,f) = 0.412E-04-0.278E-04-0.135E-04
CGA:  30    -0.118487658146E+04   -0.62765E-05   -0.62758E-05  2944   0.133E-03-0.735E-07
 gam= 1.017 trial= 0.150  step= 0.112 mean= 0.150
 final diagonalization
   4 F= -.11848766E+04 E0= -.11848572E+04  d E =-.171558E+00  mag=   118.0000
quench:  g(F)=  0.000E+00 g(S)=  0.000E+00 dE (1.order)= 0.000E+00
 bond charge predicted
 wavefunctions rotated
       N       E                     dE             d eps       ncg     rms          ort
 gam= 0.000 g(H,U,f)=  0.230E+02 0.225E+01 0.132E+01 ort(H,U,f) = 0.000E+00 0.000E+00 0.000E+00
SDA:   1    -0.117640721687E+04    0.84694E+01    0.00000E+00  2944   0.265E+02 0.000E+00
 gam= 0.000 trial= 0.148  step= 0.180 mean= 0.148
 gam= 2.691 g(H,U,f)=  0.146E+02 0.365E+02 0.203E+02 ort(H,U,f) = 0.139E+02-0.837E+01-0.495E+01
CGA:   2    -0.117880410105E+04   -0.23969E+01   -0.23915E+01  2944   0.714E+02 0.604E+00
 gam= 2.691 trial= 0.149  step= 0.104 mean= 0.149
 gam= 0.146 g(H,U,f)=  0.889E+01 0.105E+01 0.481E+00 ort(H,U,f) = 0.262E+01-0.226E+01-0.109E+01
CGA:   3    -0.118258342985E+04   -0.37793E+01   -0.37930E+01  2944   0.104E+02-0.729E+00
 gam= 0.146 trial= 0.147  step= 0.280 mean= 0.147
 gam= 1.295 g(H,U,f)=  0.310E+01 0.827E+01 0.211E+01 ort(H,U,f) = 0.195E+01-0.203E+01-0.495E+00
CGA:   4    -0.118398670991E+04   -0.14033E+01   -0.14451E+01  2944   0.135E+02-0.572E+00
 gam= 1.295 trial= 0.154  step= 0.060 mean= 0.154
 gam= 0.463 g(H,U,f)=  0.209E+01 0.276E+01 0.140E+01 ort(H,U,f) = 0.186E+01-0.137E+01-0.123E+01
CGA:   5    -0.118435310279E+04   -0.36639E+00   -0.38052E+00  2944   0.625E+01-0.732E+00
 gam= 0.463 trial= 0.149  step= 0.106 mean= 0.149
 gam= 0.353 g(H,U,f)=  0.121E+01 0.710E+00 0.285E+00 ort(H,U,f) = 0.876E+00-0.342E+00-0.241E+00
CGA:   6    -0.118462401674E+04   -0.27091E+00   -0.31196E+00  2944   0.221E+01 0.292E+00
 gam= 0.353 trial= 0.147  step= 0.128 mean= 0.147
 gam= 1.145 g(H,U,f)=  0.559E+00 0.157E+01 0.401E+00 ort(H,U,f) = 0.691E+00-0.520E+00-0.130E+00
CGA:   7    -0.118477107814E+04   -0.14706E+00   -0.14823E+00  2944   0.253E+01 0.411E-01
 gam= 1.145 trial= 0.146  step= 0.065 mean= 0.146
 gam= 0.408 g(H,U,f)=  0.288E+00 0.662E+00 0.803E-01 ort(H,U,f) = 0.490E+00-0.391E+00-0.606E-01
CGA:   8    -0.118485666267E+04   -0.85585E-01   -0.83440E-01  2944   0.103E+01 0.379E-01
 gam= 0.408 trial= 0.142  step= 0.100 mean= 0.142
 gam= 0.313 g(H,U,f)=  0.152E+00 0.129E+00 0.415E-01 ort(H,U,f) = 0.103E+00-0.753E-01-0.244E-01
CGA:   9    -0.118490807840E+04   -0.51416E-01   -0.52304E-01  2944   0.323E+00 0.341E-02
 gam= 0.313 trial= 0.140  step= 0.095 mean= 0.140
 gam= 1.333 g(H,U,f)=  0.102E+00 0.239E+00 0.901E-01 ort(H,U,f) = 0.110E+00-0.653E-01-0.448E-01
CGA:  10    -0.118492359909E+04   -0.15521E-01   -0.15447E-01  2944   0.431E+00-0.477E-04
 gam= 1.333 trial= 0.138  step= 0.102 mean= 0.138
 gam= 0.370 g(H,U,f)=  0.580E-01 0.880E-01 0.134E-01 ort(H,U,f) = 0.544E-01-0.441E-01-0.969E-02
CGA:  11    -0.118494547107E+04   -0.21872E-01   -0.21918E-01  2944   0.159E+00 0.566E-03
 gam= 0.370 trial= 0.136  step= 0.119 mean= 0.136
 gam= 1.210 g(H,U,f)=  0.365E-01 0.110E+00 0.461E-01 ort(H,U,f) = 0.300E-01-0.116E-01-0.170E-01
CGA:  12    -0.118495497217E+04   -0.95011E-02   -0.95298E-02  2944   0.193E+00 0.133E-02
 gam= 1.210 trial= 0.135  step= 0.062 mean= 0.135
 gam= 0.310 g(H,U,f)=  0.259E-01 0.306E-01 0.315E-02 ort(H,U,f) = 0.226E-01-0.151E-01-0.537E-02
CGA:  13    -0.118496109083E+04   -0.61187E-02   -0.60082E-02  2944   0.597E-01 0.217E-02
 gam= 0.310 trial= 0.131  step= 0.175 mean= 0.131
 gam= 1.154 g(H,U,f)=  0.169E-01 0.391E-01 0.130E-01 ort(H,U,f) = 0.101E-01-0.740E-02-0.243E-02
CGA:  14    -0.118496638302E+04   -0.52922E-02   -0.52835E-02  2944   0.689E-01 0.309E-03
 gam= 1.154 trial= 0.134  step= 0.070 mean= 0.134
 gam= 0.688 g(H,U,f)=  0.127E-01 0.275E-01 0.721E-02 ort(H,U,f) = 0.130E-01-0.618E-02-0.700E-02
CGA:  15    -0.118496878093E+04   -0.23979E-02   -0.24124E-02  2944   0.474E-01-0.164E-03
 gam= 0.688 trial= 0.130  step= 0.127 mean= 0.130
 gam= 0.491 g(H,U,f)=  0.863E-02 0.112E-01 0.343E-02 ort(H,U,f) = 0.388E-02-0.234E-02-0.121E-02
CGA:  16    -0.118497178395E+04   -0.30030E-02   -0.30041E-02  2944   0.233E-01 0.329E-03
 gam= 0.491 trial= 0.130  step= 0.112 mean= 0.130
 gam= 1.254 g(H,U,f)=  0.665E-02 0.155E-01 0.702E-02 ort(H,U,f) = 0.521E-02-0.170E-02-0.349E-02
CGA:  17    -0.118497309269E+04   -0.13087E-02   -0.13093E-02  2944   0.292E-01 0.199E-04
 gam= 1.254 trial= 0.129  step= 0.076 mean= 0.129
 gam= 0.421 g(H,U,f)=  0.534E-02 0.600E-02 0.946E-03 ort(H,U,f) = 0.569E-02-0.478E-02-0.892E-03
CGA:  18    -0.118497421178E+04   -0.11191E-02   -0.11170E-02  2944   0.123E-01 0.137E-04
 gam= 0.421 trial= 0.127  step= 0.183 mean= 0.127
 gam= 1.242 g(H,U,f)=  0.357E-02 0.793E-02 0.376E-02 ort(H,U,f) = 0.276E-02-0.155E-02-0.119E-02
CGA:  19    -0.118497533870E+04   -0.11269E-02   -0.11262E-02  2944   0.153E-01 0.205E-04
 gam= 1.242 trial= 0.129  step= 0.066 mean= 0.129
 gam= 0.587 g(H,U,f)=  0.276E-02 0.517E-02 0.103E-02 ort(H,U,f) = 0.377E-02-0.273E-02-0.104E-02
CGA:  20    -0.118497584052E+04   -0.50182E-03   -0.50213E-03  2944   0.896E-02-0.460E-06
 gam= 0.587 trial= 0.126  step= 0.129 mean= 0.126
 gam= 0.401 g(H,U,f)=  0.167E-02 0.148E-02 0.446E-03 ort(H,U,f) = 0.158E-02-0.129E-02-0.257E-03
CGA:  21    -0.118497642053E+04   -0.58001E-03   -0.57991E-03  2944   0.360E-02 0.364E-04
 gam= 0.401 trial= 0.126  step= 0.105 mean= 0.126
 gam= 1.456 g(H,U,f)=  0.131E-02 0.283E-02 0.110E-02 ort(H,U,f) = 0.154E-02-0.103E-02-0.498E-03
CGA:  22    -0.118497661028E+04   -0.18975E-03   -0.18994E-03  2944   0.524E-02 0.128E-04
 gam= 1.456 trial= 0.125  step= 0.108 mean= 0.125
 gam= 0.505 g(H,U,f)=  0.899E-03 0.145E-02 0.293E-03 ort(H,U,f) = 0.151E-02-0.129E-02-0.206E-03
CGA:  23    -0.118497689359E+04   -0.28331E-03   -0.28342E-03  2944   0.265E-02 0.166E-04
 gam= 0.505 trial= 0.124  step= 0.155 mean= 0.124
 gam= 0.894 g(H,U,f)=  0.563E-03 0.124E-02 0.563E-03 ort(H,U,f) = 0.608E-03-0.421E-03-0.184E-03
CGA:  24    -0.118497709899E+04   -0.20540E-03   -0.20541E-03  2944   0.236E-02 0.306E-05
 gam= 0.894 trial= 0.126  step= 0.059 mean= 0.126
 gam= 0.449 g(H,U,f)=  0.463E-03 0.471E-03 0.127E-03 ort(H,U,f) = 0.682E-03-0.505E-03-0.174E-03
CGA:  25    -0.118497716822E+04   -0.69238E-04   -0.69529E-04  2944   0.106E-02 0.254E-05
 gam= 0.449 trial= 0.123  step= 0.183 mean= 0.123
 gam= 1.029 g(H,U,f)=  0.350E-03 0.585E-03 0.157E-03 ort(H,U,f) = 0.352E-03-0.285E-03-0.592E-04
CGA:  26    -0.118497726582E+04   -0.97598E-04   -0.97339E-04  2944   0.109E-02 0.784E-05
 gam= 1.029 trial= 0.126  step= 0.122 mean= 0.126
 gam= 1.348 g(H,U,f)=  0.272E-03 0.834E-03 0.366E-03 ort(H,U,f) = 0.361E-03-0.214E-03-0.147E-03
CGA:  27    -0.118497733293E+04   -0.67112E-04   -0.67112E-04  2944   0.147E-02-0.922E-07
 gam= 1.348 trial= 0.125  step= 0.076 mean= 0.125
 gam= 0.336 g(H,U,f)=  0.227E-03 0.241E-03 0.254E-04 ort(H,U,f) = 0.300E-03-0.271E-03-0.293E-04
CGA:  28    -0.118497738917E+04   -0.56236E-04   -0.56268E-04  2944   0.494E-03 0.505E-06
 gam= 0.336 trial= 0.123  step= 0.191 mean= 0.123
 gam= 1.324 g(H,U,f)=  0.169E-03 0.320E-03 0.166E-03 ort(H,U,f) = 0.134E-03-0.851E-04-0.448E-04
CGA:  29    -0.118497743648E+04   -0.47309E-04   -0.47166E-04  2944   0.655E-03 0.402E-05
 gam= 1.324 trial= 0.126  step= 0.066 mean= 0.126
 gam= 0.627 g(H,U,f)=  0.148E-03 0.231E-03 0.316E-04 ort(H,U,f) = 0.205E-03-0.160E-03-0.446E-04
CGA:  30    -0.118497745835E+04   -0.21875E-04   -0.21883E-04  2944   0.411E-03 0.744E-06
 gam= 0.627 trial= 0.123  step= 0.191 mean= 0.123
 gam= 0.662 g(H,U,f)=  0.986E-04 0.126E-03 0.470E-04 ort(H,U,f) = 0.636E-04-0.516E-04-0.124E-04
CGA:  31    -0.118497749751E+04   -0.39160E-04   -0.39174E-04  2944   0.272E-03-0.431E-06
 gam= 0.662 trial= 0.127  step= 0.085 mean= 0.127
 gam= 0.000 g(H,U,f)=  0.813E-04 0.158E-03 0.453E-04 ort(H,U,f) = 0.860E-04-0.507E-04-0.351E-04
SDA:  32    -0.118497750904E+04   -0.11524E-04   -0.11530E-04  2944   0.285E-03 0.151E-06
 gam= 0.000 trial= 0.125  step= 0.051 mean= 0.125
 gam= 0.389 g(H,U,f)=  0.614E-04 0.341E-04 0.153E-04 ort(H,U,f) = 0.614E-04-0.370E-04-0.248E-04
CGA:  33    -0.118497751630E+04   -0.72601E-05   -0.72363E-05  2944   0.111E-03-0.460E-06
 gam= 0.389 trial= 0.121  step= 0.235 mean= 0.121
 gam= 1.192 g(H,U,f)=  0.417E-04 0.783E-04 0.119E-04 ort(H,U,f) = 0.386E-04-0.344E-04-0.551E-05
CGA:  34    -0.118497752923E+04   -0.12929E-04   -0.13001E-04  2944   0.132E-03-0.131E-05
 gam= 1.192 trial= 0.127  step= 0.214 mean= 0.127
 gam= 0.495 g(H,U,f)=  0.268E-04 0.340E-04 0.451E-05 ort(H,U,f) = 0.786E-05-0.864E-05-0.237E-05
CGA:  35    -0.118497754303E+04   -0.13800E-04   -0.13935E-04  2944   0.653E-04-0.315E-05
 gam= 0.495 trial= 0.131  step= 0.154 mean= 0.131
 gam= 0.552 g(H,U,f)=  0.190E-04 0.142E-04 0.285E-05 ort(H,U,f) = 0.105E-04-0.810E-05-0.237E-05
CGA:  36    -0.118497754794E+04   -0.49142E-05   -0.49140E-05  2944   0.361E-04 0.516E-10
 gam= 0.552 trial= 0.132  step= 0.239 mean= 0.132
 final diagonalization
   5 F= -.11849775E+04 E0= -.11849583E+04  d E =-.100966E+00  mag=   118.0000
quench:  g(F)=  0.000E+00 g(S)=  0.000E+00 dE (1.order)= 0.000E+00
 bond charge predicted
 wavefunctions rotated
       N       E                     dE             d eps       ncg     rms          ort
 gam= 0.000 g(H,U,f)=  0.540E+02 0.432E+01 0.802E+00 ort(H,U,f) = 0.000E+00 0.000E+00 0.000E+00
SDA:   1    -0.116524886749E+04    0.19729E+02    0.00000E+00  2944   0.591E+02 0.000E+00
 gam= 0.000 trial= 0.138  step= 0.284 mean= 0.138
 gam= 1.742 g(H,U,f)=  0.254E+02 0.428E+02 0.347E+02 ort(H,U,f) = 0.212E+02-0.608E+01-0.447E+01
CGA:   2    -0.117445368159E+04   -0.92048E+01   -0.84019E+01  2944   0.103E+03 0.106E+02
 gam= 1.742 trial= 0.145  step= 0.088 mean= 0.145
 gam= 0.273 g(H,U,f)=  0.178E+02 0.856E+01 0.170E+01 ort(H,U,f) = 0.186E+02-0.104E+02-0.337E+01
CGA:   3    -0.117903442423E+04   -0.45807E+01   -0.53726E+01  2944   0.281E+02 0.491E+01
 gam= 0.273 trial= 0.142  step= 0.191 mean= 0.142
 gam= 1.635 g(H,U,f)=  0.112E+02 0.273E+02 0.746E+01 ort(H,U,f) = 0.749E+01-0.119E+02-0.299E+01
CGA:   4    -0.118139179571E+04   -0.23574E+01   -0.28090E+01  2944   0.459E+02-0.739E+01
 gam= 1.635 trial= 0.144  step= 0.067 mean= 0.144
 gam= 0.777 g(H,U,f)=  0.861E+01 0.203E+02 0.681E+01 ort(H,U,f) = 0.740E+01-0.545E+01-0.243E+01
CGA:   5    -0.118254421454E+04   -0.11524E+01   -0.11292E+01  2944   0.357E+02-0.477E+00
 gam= 0.777 trial= 0.141  step= 0.059 mean= 0.141
 gam= 0.552 g(H,U,f)=  0.423E+01 0.108E+02 0.463E+01 ort(H,U,f) = 0.812E+00-0.532E+01-0.520E+01
CGA:   6    -0.118372377081E+04   -0.11796E+01   -0.10387E+01  2944   0.197E+02-0.970E+01
 gam= 0.552 trial= 0.137  step= 0.053 mean= 0.137
 gam= 0.643 g(H,U,f)=  0.360E+01 0.577E+01 0.329E+01 ort(H,U,f) = 0.510E+00-0.422E+01-0.157E+01
CGA:   7    -0.118389601118E+04   -0.17224E+00   -0.38227E+00  2944   0.127E+02-0.528E+01
 gam= 0.643 trial= 0.132  step= 0.041 mean= 0.132
 gam= 0.710 g(H,U,f)=  0.267E+01 0.434E+01 0.196E+01 ort(H,U,f) = 0.251E+01-0.786E+00-0.116E+01
CGA:   8    -0.118410760871E+04   -0.21160E+00   -0.18957E+00  2944   0.898E+01 0.561E+00
 gam= 0.710 trial= 0.128  step= 0.066 mean= 0.128
 gam= 0.700 g(H,U,f)=  0.138E+01 0.411E+01 0.790E+00 ort(H,U,f) = 0.197E+01-0.209E+01 0.213E+00
CGA:   9    -0.118444140666E+04   -0.33380E+00   -0.31039E+00  2944   0.628E+01 0.850E-01
 gam= 0.700 trial= 0.125  step= 0.033 mean= 0.125
 gam= 0.564 g(H,U,f)=  0.105E+01 0.207E+01 0.421E+00 ort(H,U,f) = 0.174E+01-0.140E+01-0.622E+00
CGA:  10    -0.118454330291E+04   -0.10190E+00   -0.10603E+00  2944   0.354E+01-0.281E+00
 gam= 0.564 trial= 0.120  step= 0.059 mean= 0.120
 gam= 1.374 g(H,U,f)=  0.707E+00 0.266E+01 0.150E+01 ort(H,U,f) = 0.106E+01-0.537E+00-0.594E+00
CGA:  11    -0.118464104916E+04   -0.97746E-01   -0.10020E+00  2944   0.487E+01-0.669E-01
 gam= 1.374 trial= 0.117  step= 0.043 mean= 0.117
 gam= 0.441 g(H,U,f)=  0.477E+00 0.113E+01 0.536E+00 ort(H,U,f) = 0.517E+00-0.693E+00 0.197E-01
CGA:  12    -0.118474072289E+04   -0.99674E-01   -0.10354E+00  2944   0.215E+01-0.157E+00
 gam= 0.441 trial= 0.113  step= 0.035 mean= 0.113
 gam= 0.626 g(H,U,f)=  0.382E+00 0.799E+00 0.163E+00 ort(H,U,f) = 0.387E+00-0.206E+00-0.186E+00
CGA:  13    -0.118477672779E+04   -0.36005E-01   -0.35958E-01  2944   0.134E+01-0.508E-02
 gam= 0.626 trial= 0.109  step= 0.060 mean= 0.109
 gam= 1.033 g(H,U,f)=  0.270E+00 0.873E+00 0.245E+00 ort(H,U,f) = 0.310E+00-0.264E+00-0.573E-01
CGA:  14    -0.118481635041E+04   -0.39623E-01   -0.40246E-01  2944   0.139E+01-0.111E-01
 gam= 1.033 trial= 0.107  step= 0.040 mean= 0.107
 gam= 0.534 g(H,U,f)=  0.223E+00 0.449E+00 0.687E-01 ort(H,U,f) = 0.322E+00-0.353E+00-0.353E-01
CGA:  15    -0.118484224885E+04   -0.25898E-01   -0.27805E-01  2944   0.741E+00-0.656E-01
 gam= 0.534 trial= 0.104  step= 0.063 mean= 0.104
 gam= 1.339 g(H,U,f)=  0.174E+00 0.610E+00 0.208E+00 ort(H,U,f) = 0.241E+00-0.133E+00-0.110E+00
CGA:  16    -0.118486440212E+04   -0.22153E-01   -0.22258E-01  2944   0.992E+00-0.153E-02
 gam= 1.339 trial= 0.102  step= 0.062 mean= 0.102
 gam= 0.557 g(H,U,f)=  0.115E+00 0.301E+00 0.137E+00 ort(H,U,f) = 0.148E+00-0.113E+00-0.423E-01
CGA:  17    -0.118489375633E+04   -0.29354E-01   -0.30475E-01  2944   0.553E+00-0.736E-02
 gam= 0.557 trial= 0.100  step= 0.041 mean= 0.100
 gam= 0.569 g(H,U,f)=  0.879E-01 0.175E+00 0.521E-01 ort(H,U,f) = 0.991E-01-0.586E-01-0.400E-01
CGA:  18    -0.118490509673E+04   -0.11340E-01   -0.11320E-01  2944   0.315E+00 0.417E-03
 gam= 0.569 trial= 0.097  step= 0.075 mean= 0.097
 gam= 0.825 g(H,U,f)=  0.594E-01 0.144E+00 0.560E-01 ort(H,U,f) = 0.579E-01-0.425E-01-0.146E-01
CGA:  19    -0.118491684107E+04   -0.11744E-01   -0.11787E-01  2944   0.260E+00 0.769E-03
 gam= 0.825 trial= 0.096  step= 0.043 mean= 0.096
 gam= 0.527 g(H,U,f)=  0.480E-01 0.727E-01 0.160E-01 ort(H,U,f) = 0.654E-01-0.517E-01-0.153E-01
CGA:  20    -0.118492236500E+04   -0.55239E-02   -0.55826E-02  2944   0.137E+00-0.161E-02
 gam= 0.527 trial= 0.093  step= 0.092 mean= 0.093
 gam= 1.595 g(H,U,f)=  0.345E-01 0.122E+00 0.616E-01 ort(H,U,f) = 0.458E-01-0.228E-01-0.223E-01
CGA:  21    -0.118492861031E+04   -0.62453E-02   -0.62461E-02  2944   0.218E+00 0.692E-03
 gam= 1.595 trial= 0.093  step= 0.057 mean= 0.093
 gam= 0.407 g(H,U,f)=  0.258E-01 0.470E-01 0.161E-01 ort(H,U,f) = 0.399E-01-0.329E-01-0.809E-02
CGA:  22    -0.118493465287E+04   -0.60426E-02   -0.62198E-02  2944   0.889E-01-0.113E-02
 gam= 0.407 trial= 0.091  step= 0.070 mean= 0.091
 gam= 1.069 g(H,U,f)=  0.194E-01 0.524E-01 0.233E-01 ort(H,U,f) = 0.224E-01-0.134E-01-0.892E-02
CGA:  23    -0.118493774991E+04   -0.30970E-02   -0.31023E-02  2944   0.951E-01 0.943E-04
 gam= 1.069 trial= 0.090  step= 0.063 mean= 0.090
 gam= 0.407 g(H,U,f)=  0.142E-01 0.184E-01 0.608E-02 ort(H,U,f) = 0.169E-01-0.138E-01-0.308E-02
CGA:  24    -0.118494073243E+04   -0.29825E-02   -0.29833E-02  2944   0.387E-01-0.910E-05
 gam= 0.407 trial= 0.089  step= 0.067 mean= 0.089
 gam= 1.159 g(H,U,f)=  0.115E-01 0.248E-01 0.863E-02 ort(H,U,f) = 0.139E-01-0.796E-02-0.592E-02
CGA:  25    -0.118494203535E+04   -0.13029E-02   -0.13045E-02  2944   0.449E-01 0.349E-04
 gam= 1.159 trial= 0.088  step= 0.091 mean= 0.088
 gam= 0.674 g(H,U,f)=  0.786E-02 0.156E-01 0.683E-02 ort(H,U,f) = 0.108E-01-0.827E-02-0.202E-02
CGA:  26    -0.118494407957E+04   -0.20442E-02   -0.20427E-02  2944   0.303E-01 0.499E-03
 gam= 0.674 trial= 0.088  step= 0.055 mean= 0.088
 gam= 0.770 g(H,U,f)=  0.643E-02 0.133E-01 0.354E-02 ort(H,U,f) = 0.950E-02-0.647E-02-0.303E-02
CGA:  27    -0.118494492460E+04   -0.84503E-03   -0.84532E-03  2944   0.233E-01-0.193E-05
 gam= 0.770 trial= 0.086  step= 0.100 mean= 0.086
 gam= 0.775 g(H,U,f)=  0.438E-02 0.964E-02 0.404E-02 ort(H,U,f) = 0.536E-02-0.420E-02-0.121E-02
CGA:  28    -0.118494608726E+04   -0.11627E-02   -0.11632E-02  2944   0.181E-01-0.520E-04
 gam= 0.775 trial= 0.087  step= 0.050 mean= 0.087
 gam= 0.586 g(H,U,f)=  0.349E-02 0.605E-02 0.105E-02 ort(H,U,f) = 0.511E-02-0.376E-02-0.135E-02
CGA:  29    -0.118494654098E+04   -0.45371E-03   -0.45502E-03  2944   0.106E-01-0.219E-05
 gam= 0.586 trial= 0.085  step= 0.106 mean= 0.085
 gam= 0.995 g(H,U,f)=  0.251E-02 0.544E-02 0.259E-02 ort(H,U,f) = 0.303E-02-0.209E-02-0.846E-03
CGA:  30    -0.118494710180E+04   -0.56082E-03   -0.55966E-03  2944   0.105E-01 0.863E-04
 gam= 0.995 trial= 0.086  step= 0.054 mean= 0.086
 gam= 0.620 g(H,U,f)=  0.209E-02 0.377E-02 0.679E-03 ort(H,U,f) = 0.357E-02-0.294E-02-0.619E-03
CGA:  31    -0.118494739090E+04   -0.28911E-03   -0.28941E-03  2944   0.654E-02 0.126E-04
 gam= 0.620 trial= 0.084  step= 0.126 mean= 0.084
 gam= 0.000 g(H,U,f)=  0.150E-02 0.458E-02 0.200E-02 ort(H,U,f) = 0.204E-02-0.149E-02-0.514E-03
SDA:  32    -0.118494780522E+04   -0.41432E-03   -0.41343E-03  2944   0.807E-02 0.381E-04
 gam= 0.000 trial= 0.087  step= 0.042 mean= 0.087
 gam= 0.202 g(H,U,f)=  0.107E-02 0.405E-03 0.159E-03 ort(H,U,f) = 0.110E-02-0.641E-03-0.461E-03
CGA:  33    -0.118494797644E+04   -0.17122E-03   -0.17150E-03  2944   0.163E-02-0.200E-05
 gam= 0.202 trial= 0.084  step= 0.263 mean= 0.084
 gam= 1.666 g(H,U,f)=  0.831E-03 0.158E-02 0.305E-03 ort(H,U,f) = 0.724E-03-0.586E-03-0.125E-03
CGA:  34    -0.118494819230E+04   -0.21586E-03   -0.21475E-03  2944   0.272E-02 0.135E-04
 gam= 1.666 trial= 0.093  step= 0.216 mean= 0.093
 gam= 0.698 g(H,U,f)=  0.708E-03 0.107E-02 0.119E-03 ort(H,U,f) = 0.616E-03-0.564E-03-0.491E-04
CGA:  35    -0.118494848857E+04   -0.29626E-03   -0.29612E-03  2944   0.190E-02 0.217E-05
 gam= 0.698 trial= 0.099  step= 0.174 mean= 0.099
 gam= 0.717 g(H,U,f)=  0.418E-03 0.722E-03 0.219E-03 ort(H,U,f) = 0.373E-03-0.293E-03-0.671E-04
CGA:  36    -0.118494865405E+04   -0.16549E-03   -0.16499E-03  2944   0.136E-02 0.129E-04
 gam= 0.717 trial= 0.103  step= 0.082 mean= 0.103
 gam= 0.797 g(H,U,f)=  0.337E-03 0.491E-03 0.254E-03 ort(H,U,f) = 0.420E-03-0.237E-03-0.179E-03
CGA:  37    -0.118494870989E+04   -0.55839E-04   -0.55881E-04  2944   0.108E-02 0.329E-05
 gam= 0.797 trial= 0.102  step= 0.128 mean= 0.102
 gam= 0.507 g(H,U,f)=  0.296E-03 0.213E-03 0.390E-04 ort(H,U,f) = 0.316E-03-0.268E-03-0.461E-04
CGA:  38    -0.118494877962E+04   -0.69724E-04   -0.69703E-04  2944   0.549E-03 0.142E-05
 gam= 0.507 trial= 0.103  step= 0.346 mean= 0.103
 gam= 1.126 g(H,U,f)=  0.224E-03 0.321E-03 0.727E-04 ort(H,U,f) = 0.136E-03-0.107E-03-0.266E-04
CGA:  39    -0.118494887481E+04   -0.95187E-04   -0.94908E-04  2944   0.618E-03 0.246E-05
 gam= 1.126 trial= 0.116  step= 0.197 mean= 0.116
 gam= 0.443 g(H,U,f)=  0.139E-03 0.945E-04 0.403E-04 ort(H,U,f) = 0.780E-04-0.628E-04-0.150E-04
CGA:  40    -0.118494893607E+04   -0.61269E-04   -0.61262E-04  2944   0.274E-03 0.125E-06
 gam= 0.443 trial= 0.120  step= 0.104 mean= 0.120
 gam= 1.395 g(H,U,f)=  0.115E-03 0.182E-03 0.857E-04 ort(H,U,f) = 0.126E-03-0.779E-04-0.473E-04
CGA:  41    -0.118494895029E+04   -0.14215E-04   -0.14223E-04  2944   0.382E-03 0.908E-06
 gam= 1.395 trial= 0.119  step= 0.154 mean= 0.119
 gam= 0.641 g(H,U,f)=  0.982E-04 0.124E-03 0.225E-04 ort(H,U,f) = 0.120E-03-0.101E-03-0.183E-04
CGA:  42    -0.118494897982E+04   -0.29533E-04   -0.29524E-04  2944   0.245E-03 0.579E-06
 gam= 0.641 trial= 0.121  step= 0.282 mean= 0.121
 gam= 0.616 g(H,U,f)=  0.787E-04 0.604E-04 0.118E-04 ort(H,U,f) = 0.326E-04-0.270E-04-0.434E-05
CGA:  43    -0.118494901455E+04   -0.34725E-04   -0.34618E-04  2944   0.151E-03 0.130E-05
 gam= 0.616 trial= 0.129  step= 0.143 mean= 0.129
 gam= 1.435 g(H,U,f)=  0.691E-04 0.104E-03 0.432E-04 ort(H,U,f) = 0.641E-04-0.478E-04-0.155E-04
CGA:  44    -0.118494902543E+04   -0.10887E-04   -0.10880E-04  2944   0.217E-03 0.802E-06
 gam= 1.435 trial= 0.129  step= 0.116 mean= 0.129
 gam= 1.066 g(H,U,f)=  0.602E-04 0.127E-03 0.441E-04 ort(H,U,f) = 0.900E-04-0.633E-04-0.256E-04
CGA:  45    -0.118494903803E+04   -0.12593E-04   -0.12601E-04  2944   0.231E-03 0.109E-05
 gam= 1.066 trial= 0.129  step= 0.145 mean= 0.129
 gam= 0.426 g(H,U,f)=  0.464E-04 0.455E-04 0.654E-05 ort(H,U,f) = 0.377E-04-0.319E-04-0.603E-05
CGA:  46    -0.118494905485E+04   -0.16825E-04   -0.16828E-04  2944   0.985E-04-0.251E-06
 gam= 0.426 trial= 0.130  step= 0.202 mean= 0.130
 gam= 0.677 g(H,U,f)=  0.353E-04 0.257E-04 0.560E-05 ort(H,U,f) = 0.226E-04-0.190E-04-0.306E-05
CGA:  47    -0.118494906479E+04   -0.99372E-05   -0.99180E-05  2944   0.667E-04 0.513E-06
 gam= 0.677 trial= 0.133  step= 0.169 mean= 0.133
 final diagonalization
   6 F= -.11849491E+04 E0= -.11849296E+04  d E =0.284832E-01  mag=   118.0000
quench:  g(F)=  0.000E+00 g(S)=  0.000E+00 dE (1.order)= 0.000E+00
 bond charge predicted
 wavefunctions rotated
       N       E                     dE             d eps       ncg     rms          ort
 gam= 0.000 g(H,U,f)=  0.542E+01 0.553E+00 0.550E-01 ort(H,U,f) = 0.000E+00 0.000E+00 0.000E+00
SDA:   1    -0.118288966201E+04    0.20594E+01    0.00000E+00  2944   0.602E+01 0.000E+00
 gam= 0.000 trial= 0.135  step= 0.346 mean= 0.135
 gam= 1.018 g(H,U,f)=  0.273E+01 0.247E+01 0.938E+00 ort(H,U,f) = 0.183E+01-0.781E+00-0.262E+00
CGA:   2    -0.118400775155E+04   -0.11181E+01   -0.10431E+01  2944   0.613E+01 0.786E+00
 gam= 1.018 trial= 0.146  step= 0.169 mean= 0.146
 gam= 0.652 g(H,U,f)=  0.147E+01 0.216E+01 0.369E+00 ort(H,U,f) = 0.126E+01-0.141E+01-0.136E+00
CGA:   3    -0.118458808018E+04   -0.58033E+00   -0.58595E+00  2944   0.399E+01-0.281E+00
 gam= 0.652 trial= 0.147  step= 0.131 mean= 0.147
 gam= 0.381 g(H,U,f)=  0.762E+00 0.660E+00 0.101E+00 ort(H,U,f) = 0.723E+00-0.345E+00-0.746E-01
CGA:   4    -0.118483249720E+04   -0.24442E+00   -0.25033E+00  2944   0.152E+01 0.303E+00
 gam= 0.381 trial= 0.146  step= 0.126 mean= 0.146
 gam= 0.824 g(H,U,f)=  0.351E+00 0.643E+00 0.262E+00 ort(H,U,f) = 0.452E+00-0.287E+00-0.149E+00
CGA:   5    -0.118493500699E+04   -0.10251E+00   -0.10303E+00  2944   0.126E+01 0.166E-01
 gam= 0.824 trial= 0.145  step= 0.083 mean= 0.145
 gam= 0.508 g(H,U,f)=  0.199E+00 0.323E+00 0.116E+00 ort(H,U,f) = 0.283E+00-0.198E+00-0.770E-01
CGA:   6    -0.118498846119E+04   -0.53454E-01   -0.52863E-01  2944   0.638E+00 0.718E-02
 gam= 0.508 trial= 0.142  step= 0.100 mean= 0.142
 gam= 0.562 g(H,U,f)=  0.112E+00 0.194E+00 0.524E-01 ort(H,U,f) = 0.141E+00-0.101E+00-0.405E-01
CGA:   7    -0.118502038930E+04   -0.31928E-01   -0.32112E-01  2944   0.359E+00-0.261E-04
 gam= 0.562 trial= 0.140  step= 0.119 mean= 0.140
 gam= 0.345 g(H,U,f)=  0.528E-01 0.622E-01 0.895E-02 ort(H,U,f) = 0.592E-01-0.483E-01-0.539E-02
CGA:   8    -0.118504164106E+04   -0.21252E-01   -0.21420E-01  2944   0.124E+00 0.550E-02
 gam= 0.345 trial= 0.139  step= 0.134 mean= 0.139
 gam= 0.930 g(H,U,f)=  0.296E-01 0.639E-01 0.217E-01 ort(H,U,f) = 0.305E-01-0.200E-01-0.108E-01
CGA:   9    -0.118505008525E+04   -0.84442E-02   -0.84426E-02  2944   0.115E+00-0.321E-03
 gam= 0.930 trial= 0.139  step= 0.086 mean= 0.139
 gam= 0.565 g(H,U,f)=  0.174E-01 0.357E-01 0.120E-01 ort(H,U,f) = 0.230E-01-0.157E-01-0.720E-02
CGA:  10    -0.118505509687E+04   -0.50116E-02   -0.49632E-02  2944   0.651E-01 0.191E-03
 gam= 0.565 trial= 0.136  step= 0.091 mean= 0.136
 gam= 0.496 g(H,U,f)=  0.113E-01 0.190E-01 0.193E-02 ort(H,U,f) = 0.129E-01-0.103E-01-0.269E-02
CGA:  11    -0.118505807706E+04   -0.29802E-02   -0.29709E-02  2944   0.323E-01-0.100E-04
 gam= 0.496 trial= 0.134  step= 0.168 mean= 0.134
 gam= 0.552 g(H,U,f)=  0.683E-02 0.951E-02 0.150E-02 ort(H,U,f) = 0.448E-02-0.352E-02-0.757E-03
CGA:  12    -0.118506079631E+04   -0.27193E-02   -0.27143E-02  2944   0.178E-01 0.208E-03
 gam= 0.552 trial= 0.135  step= 0.126 mean= 0.135
 gam= 1.088 g(H,U,f)=  0.488E-02 0.116E-01 0.291E-02 ort(H,U,f) = 0.438E-02-0.302E-02-0.130E-02
CGA:  13    -0.118506192751E+04   -0.11312E-02   -0.11317E-02  2944   0.194E-01 0.547E-04
 gam= 1.088 trial= 0.135  step= 0.097 mean= 0.135
 gam= 0.700 g(H,U,f)=  0.335E-02 0.794E-02 0.230E-02 ort(H,U,f) = 0.352E-02-0.210E-02-0.140E-02
CGA:  14    -0.118506286855E+04   -0.94104E-03   -0.94226E-03  2944   0.136E-01 0.142E-04
 gam= 0.700 trial= 0.133  step= 0.095 mean= 0.133
 gam= 0.417 g(H,U,f)=  0.232E-02 0.303E-02 0.315E-03 ort(H,U,f) = 0.167E-02-0.132E-02-0.342E-03
CGA:  15    -0.118506351691E+04   -0.64836E-03   -0.64835E-03  2944   0.567E-02 0.286E-06
 gam= 0.417 trial= 0.131  step= 0.175 mean= 0.131
 gam= 0.750 g(H,U,f)=  0.153E-02 0.225E-02 0.478E-03 ort(H,U,f) = 0.862E-03-0.644E-03-0.207E-03
CGA:  16    -0.118506401344E+04   -0.49653E-03   -0.49624E-03  2944   0.425E-02 0.108E-04
 gam= 0.750 trial= 0.133  step= 0.112 mean= 0.133
 gam= 0.994 g(H,U,f)=  0.105E-02 0.239E-02 0.785E-03 ort(H,U,f) = 0.994E-03-0.653E-03-0.339E-03
CGA:  17    -0.118506425132E+04   -0.23788E-03   -0.23787E-03  2944   0.423E-02 0.297E-05
 gam= 0.994 trial= 0.132  step= 0.097 mean= 0.132
 gam= 0.616 g(H,U,f)=  0.727E-03 0.151E-02 0.364E-03 ort(H,U,f) = 0.780E-03-0.510E-03-0.267E-03
CGA:  18    -0.118506445705E+04   -0.20573E-03   -0.20585E-03  2944   0.261E-02 0.263E-05
 gam= 0.616 trial= 0.130  step= 0.106 mean= 0.130
 gam= 0.432 g(H,U,f)=  0.467E-03 0.555E-03 0.103E-03 ort(H,U,f) = 0.453E-03-0.371E-03-0.834E-04
CGA:  19    -0.118506459541E+04   -0.13836E-03   -0.13831E-03  2944   0.113E-02-0.164E-05
 gam= 0.432 trial= 0.129  step= 0.189 mean= 0.129
 gam= 0.765 g(H,U,f)=  0.281E-03 0.466E-03 0.114E-03 ort(H,U,f) = 0.228E-03-0.168E-03-0.592E-04
CGA:  20    -0.118506470199E+04   -0.10658E-03   -0.10653E-03  2944   0.862E-03 0.141E-05
 gam= 0.765 trial= 0.132  step= 0.100 mean= 0.132
 gam= 0.853 g(H,U,f)=  0.200E-03 0.409E-03 0.125E-03 ort(H,U,f) = 0.258E-03-0.193E-03-0.639E-04
CGA:  21    -0.118506474522E+04   -0.43226E-04   -0.43242E-04  2944   0.735E-03 0.827E-06
 gam= 0.853 trial= 0.131  step= 0.104 mean= 0.131
 gam= 0.716 g(H,U,f)=  0.136E-03 0.309E-03 0.810E-04 ort(H,U,f) = 0.194E-03-0.149E-03-0.440E-04
CGA:  22    -0.118506478327E+04   -0.38046E-04   -0.38060E-04  2944   0.526E-03 0.995E-06
 gam= 0.716 trial= 0.129  step= 0.113 mean= 0.129
 gam= 0.395 g(H,U,f)=  0.958E-04 0.913E-04 0.204E-04 ort(H,U,f) = 0.111E-03-0.888E-04-0.238E-04
CGA:  23    -0.118506481298E+04   -0.29715E-04   -0.29696E-04  2944   0.207E-03-0.116E-05
 gam= 0.395 trial= 0.128  step= 0.211 mean= 0.128
 gam= 1.038 g(H,U,f)=  0.701E-04 0.119E-03 0.267E-04 ort(H,U,f) = 0.618E-04-0.515E-04-0.973E-05
CGA:  24    -0.118506483481E+04   -0.21829E-04   -0.21805E-04  2944   0.215E-03 0.557E-06
 gam= 1.038 trial= 0.133  step= 0.113 mean= 0.133
 gam= 0.913 g(H,U,f)=  0.555E-04 0.101E-03 0.398E-04 ort(H,U,f) = 0.706E-04-0.484E-04-0.206E-04
CGA:  25    -0.118506484703E+04   -0.12224E-04   -0.12241E-04  2944   0.197E-03 0.169E-05
 gam= 0.913 trial= 0.132  step= 0.100 mean= 0.132
 gam= 0.794 g(H,U,f)=  0.468E-04 0.900E-04 0.193E-04 ort(H,U,f) = 0.632E-04-0.497E-04-0.123E-04
CGA:  26    -0.118506485696E+04   -0.99303E-05   -0.99492E-05  2944   0.156E-03 0.114E-05
 gam= 0.794 trial= 0.130  step= 0.125 mean= 0.130
 final diagonalization
   7 F= -.11850649E+04 E0= -.11850455E+04  d E =-.115792E+00  mag=   118.0000
quench:  g(F)=  0.000E+00 g(S)=  0.000E+00 dE (1.order)= 0.000E+00
 bond charge predicted
 wavefunctions rotated
       N       E                     dE             d eps       ncg     rms          ort
 gam= 0.000 g(H,U,f)=  0.133E+01 0.471E-01 0.916E-02 ort(H,U,f) = 0.000E+00 0.000E+00 0.000E+00
SDA:   1    -0.118457167013E+04    0.49318E+00    0.00000E+00  2944   0.139E+01 0.000E+00
 gam= 0.000 trial= 0.130  step= 0.439 mean= 0.130
 gam= 1.420 g(H,U,f)=  0.652E+00 0.102E+01 0.304E+00 ort(H,U,f) = 0.218E+00-0.176E+00-0.472E-01
CGA:   2    -0.118487581612E+04   -0.30415E+00   -0.30503E+00  2944   0.197E+01-0.539E-02
 gam= 1.420 trial= 0.145  step= 0.089 mean= 0.145
 gam= 0.500 g(H,U,f)=  0.431E+00 0.390E+00 0.167E+00 ort(H,U,f) = 0.367E+00-0.213E+00-0.156E+00
CGA:   3    -0.118496524994E+04   -0.89434E-01   -0.87861E-01  2944   0.988E+00-0.166E-02
 gam= 0.500 trial= 0.142  step= 0.083 mean= 0.142
 gam= 0.635 g(H,U,f)=  0.262E+00 0.269E+00 0.968E-01 ort(H,U,f) = 0.357E+00-0.253E+00-0.101E+00
CGA:   4    -0.118500660245E+04   -0.41353E-01   -0.40896E-01  2944   0.627E+00 0.246E-02
 gam= 0.635 trial= 0.139  step= 0.171 mean= 0.139
 gam= 0.260 g(H,U,f)=  0.879E-01 0.634E-01 0.117E-01 ort(H,U,f) = 0.453E-01-0.433E-01-0.829E-02
CGA:   5    -0.118506008537E+04   -0.53483E-01   -0.53629E-01  2944   0.163E+00-0.629E-02
 gam= 0.260 trial= 0.141  step= 0.132 mean= 0.141
 gam= 1.054 g(H,U,f)=  0.497E-01 0.914E-01 0.307E-01 ort(H,U,f) = 0.490E-01-0.387E-01-0.120E-01
CGA:   6    -0.118507076978E+04   -0.10684E-01   -0.10668E-01  2944   0.172E+00-0.162E-02
 gam= 1.054 trial= 0.141  step= 0.084 mean= 0.141
 gam= 0.499 g(H,U,f)=  0.268E-01 0.455E-01 0.133E-01 ort(H,U,f) = 0.441E-01-0.308E-01-0.133E-01
CGA:   7    -0.118507790508E+04   -0.71353E-02   -0.71483E-02  2944   0.857E-01-0.560E-04
 gam= 0.499 trial= 0.138  step= 0.133 mean= 0.138
 gam= 0.229 g(H,U,f)=  0.987E-02 0.801E-02 0.175E-02 ort(H,U,f) = 0.719E-02-0.526E-02-0.208E-02
CGA:   8    -0.118508360353E+04   -0.56984E-02   -0.56976E-02  2944   0.196E-01-0.150E-03
 gam= 0.229 trial= 0.138  step= 0.139 mean= 0.138
 gam= 1.280 g(H,U,f)=  0.554E-02 0.139E-01 0.568E-02 ort(H,U,f) = 0.557E-02-0.351E-02-0.200E-02
CGA:   9    -0.118508496638E+04   -0.13629E-02   -0.13628E-02  2944   0.251E-01 0.552E-04
 gam= 1.280 trial= 0.138  step= 0.081 mean= 0.138
 gam= 0.343 g(H,U,f)=  0.347E-02 0.427E-02 0.878E-03 ort(H,U,f) = 0.450E-02-0.312E-02-0.136E-02
CGA:  10    -0.118508599684E+04   -0.10305E-02   -0.10263E-02  2944   0.862E-02 0.206E-04
 gam= 0.343 trial= 0.135  step= 0.201 mean= 0.135
 gam= 0.672 g(H,U,f)=  0.172E-02 0.331E-02 0.759E-03 ort(H,U,f) = 0.918E-03-0.663E-03-0.251E-03
CGA:  11    -0.118508686385E+04   -0.86701E-03   -0.86677E-03  2944   0.579E-02 0.363E-05
 gam= 0.672 trial= 0.138  step= 0.090 mean= 0.138
 gam= 0.720 g(H,U,f)=  0.125E-02 0.220E-02 0.718E-03 ort(H,U,f) = 0.110E-02-0.594E-03-0.507E-03
CGA:  12    -0.118508712431E+04   -0.26046E-03   -0.26056E-03  2944   0.417E-02-0.370E-05
 gam= 0.720 trial= 0.136  step= 0.112 mean= 0.136
 gam= 0.691 g(H,U,f)=  0.895E-03 0.150E-02 0.486E-03 ort(H,U,f) = 0.849E-03-0.518E-03-0.333E-03
CGA:  13    -0.118508735678E+04   -0.23247E-03   -0.23243E-03  2944   0.288E-02-0.253E-05
 gam= 0.691 trial= 0.134  step= 0.174 mean= 0.134
 gam= 0.495 g(H,U,f)=  0.499E-03 0.681E-03 0.248E-03 ort(H,U,f) = 0.166E-03-0.225E-04-0.155E-03
CGA:  14    -0.118508760740E+04   -0.25062E-03   -0.25088E-03  2944   0.143E-02-0.106E-04
 gam= 0.495 trial= 0.136  step= 0.097 mean= 0.136
 gam= 1.021 g(H,U,f)=  0.398E-03 0.795E-03 0.263E-03 ort(H,U,f) = 0.322E-03-0.156E-03-0.164E-03
CGA:  15    -0.118508767664E+04   -0.69239E-04   -0.69295E-04  2944   0.146E-02 0.195E-05
 gam= 1.021 trial= 0.135  step= 0.131 mean= 0.135
 gam= 0.489 g(H,U,f)=  0.273E-03 0.363E-03 0.756E-04 ort(H,U,f) = 0.217E-03-0.145E-03-0.664E-04
CGA:  16    -0.118508777226E+04   -0.95619E-04   -0.95627E-04  2944   0.712E-03 0.510E-05
 gam= 0.489 trial= 0.134  step= 0.170 mean= 0.134
 gam= 0.780 g(H,U,f)=  0.181E-03 0.277E-03 0.969E-04 ort(H,U,f) = 0.130E-03-0.874E-04-0.376E-04
CGA:  17    -0.118508783307E+04   -0.60818E-04   -0.60735E-04  2944   0.556E-03 0.470E-05
 gam= 0.780 trial= 0.136  step= 0.087 mean= 0.136
 gam= 0.853 g(H,U,f)=  0.146E-03 0.245E-03 0.825E-04 ort(H,U,f) = 0.170E-03-0.106E-03-0.632E-04
CGA:  18    -0.118508785743E+04   -0.24352E-04   -0.24387E-04  2944   0.474E-03 0.147E-05
 gam= 0.853 trial= 0.134  step= 0.164 mean= 0.134
 gam= 0.336 g(H,U,f)=  0.746E-04 0.668E-04 0.178E-04 ort(H,U,f) = 0.691E-04-0.525E-04-0.137E-04
CGA:  19    -0.118508789647E+04   -0.39046E-04   -0.39002E-04  2944   0.159E-03 0.296E-05
 gam= 0.336 trial= 0.135  step= 0.137 mean= 0.135
 gam= 1.296 g(H,U,f)=  0.554E-04 0.106E-03 0.453E-04 ort(H,U,f) = 0.590E-04-0.420E-04-0.178E-04
CGA:  20    -0.118508790747E+04   -0.10999E-04   -0.10999E-04  2944   0.206E-03-0.903E-06
 gam= 1.296 trial= 0.135  step= 0.105 mean= 0.135
 gam= 0.687 g(H,U,f)=  0.396E-04 0.782E-04 0.239E-04 ort(H,U,f) = 0.654E-04-0.492E-04-0.172E-04
CGA:  21    -0.118508791831E+04   -0.10833E-04   -0.10819E-04  2944   0.142E-03-0.105E-05
 gam= 0.687 trial= 0.134  step= 0.141 mean= 0.134
 gam= 0.451 g(H,U,f)=  0.260E-04 0.318E-04 0.614E-05 ort(H,U,f) = 0.302E-04-0.257E-04-0.571E-05
CGA:  22    -0.118508792827E+04   -0.99680E-05   -0.99728E-05  2944   0.640E-04-0.126E-05
 gam= 0.451 trial= 0.134  step= 0.144 mean= 0.134
 final diagonalization
   8 F= -.11850879E+04 E0= -.11850685E+04  d E =-.230713E-01  mag=   118.0000
quench:  g(F)=  0.000E+00 g(S)=  0.000E+00 dE (1.order)= 0.000E+00
 bond charge predicted
 wavefunctions rotated
       N       E                     dE             d eps       ncg     rms          ort
 gam= 0.000 g(H,U,f)=  0.268E+01 0.138E+01 0.479E+00 ort(H,U,f) = 0.000E+00 0.000E+00 0.000E+00
SDA:   1    -0.118412006318E+04    0.96786E+00    0.00000E+00  2944   0.453E+01 0.000E+00
 gam= 0.000 trial= 0.135  step= 0.076 mean= 0.135
 gam= 1.012 g(H,U,f)=  0.197E+01 0.163E+01 0.990E+00 ort(H,U,f) = 0.203E+01-0.130E+01-0.832E+00
CGA:   2    -0.118428480845E+04   -0.16475E+00   -0.17137E+00  2944   0.459E+01-0.101E+00
 gam= 1.012 trial= 0.132  step= 0.244 mean= 0.132
 gam= 0.279 g(H,U,f)=  0.110E+01 0.160E+00 0.246E-01 ort(H,U,f) = 0.712E-01-0.971E-01-0.187E-01
CGA:   3    -0.118482897730E+04   -0.54417E+00   -0.54674E+00  2944   0.128E+01-0.446E-01
 gam= 0.279 trial= 0.137  step= 0.242 mean= 0.137
 gam= 1.055 g(H,U,f)=  0.371E+00 0.839E+00 0.141E+00 ort(H,U,f) = 0.318E+00-0.253E+00-0.286E-01
CGA:   4    -0.118498468629E+04   -0.15571E+00   -0.15368E+00  2944   0.135E+01 0.366E-01
 gam= 1.055 trial= 0.143  step= 0.082 mean= 0.143
 gam= 0.483 g(H,U,f)=  0.192E+00 0.342E+00 0.118E+00 ort(H,U,f) = 0.270E+00-0.188E+00-0.768E-01
CGA:   5    -0.118504210986E+04   -0.57424E-01   -0.56665E-01  2944   0.653E+00 0.540E-02
 gam= 0.483 trial= 0.140  step= 0.074 mean= 0.140
 gam= 0.321 g(H,U,f)=  0.119E+00 0.699E-01 0.210E-01 ort(H,U,f) = 0.139E+00-0.995E-01-0.380E-01
CGA:   6    -0.118506661969E+04   -0.24510E-01   -0.24326E-01  2944   0.210E+00 0.110E-02
 gam= 0.321 trial= 0.136  step= 0.218 mean= 0.136
 gam= 0.599 g(H,U,f)=  0.437E-01 0.680E-01 0.140E-01 ort(H,U,f) = 0.399E-01-0.329E-01-0.782E-02
CGA:   7    -0.118508949519E+04   -0.22875E-01   -0.22918E-01  2944   0.126E+00-0.869E-03
 gam= 0.599 trial= 0.140  step= 0.122 mean= 0.140
 gam= 0.668 g(H,U,f)=  0.196E-01 0.458E-01 0.186E-01 ort(H,U,f) = 0.200E-01-0.128E-01-0.637E-02
CGA:   8    -0.118509710853E+04   -0.76133E-02   -0.76345E-02  2944   0.840E-01 0.829E-03
 gam= 0.668 trial= 0.139  step= 0.059 mean= 0.139
 gam= 0.250 g(H,U,f)=  0.122E-01 0.706E-02 0.173E-02 ort(H,U,f) = 0.162E-01-0.114E-01-0.455E-02
CGA:   9    -0.118509960297E+04   -0.24944E-02   -0.24809E-02  2944   0.210E-01 0.305E-03
 gam= 0.250 trial= 0.135  step= 0.282 mean= 0.135
 gam= 0.783 g(H,U,f)=  0.479E-02 0.102E-01 0.146E-02 ort(H,U,f) = 0.292E-02-0.227E-02-0.512E-03
CGA:  10    -0.118510258179E+04   -0.29788E-02   -0.29689E-02  2944   0.164E-01 0.137E-03
 gam= 0.783 trial= 0.143  step= 0.095 mean= 0.143
 gam= 0.620 g(H,U,f)=  0.311E-02 0.531E-02 0.178E-02 ort(H,U,f) = 0.259E-02-0.165E-02-0.937E-03
CGA:  11    -0.118510337144E+04   -0.78965E-03   -0.78624E-03  2944   0.102E-01 0.443E-05
 gam= 0.620 trial= 0.140  step= 0.082 mean= 0.140
 gam= 0.569 g(H,U,f)=  0.223E-02 0.288E-02 0.687E-03 ort(H,U,f) = 0.244E-02-0.168E-02-0.765E-03
CGA:  12    -0.118510379086E+04   -0.41942E-03   -0.42034E-03  2944   0.580E-02-0.399E-05
 gam= 0.569 trial= 0.137  step= 0.223 mean= 0.137
 gam= 0.553 g(H,U,f)=  0.116E-02 0.169E-02 0.359E-03 ort(H,U,f) = 0.468E-03-0.297E-03-0.179E-03
CGA:  13    -0.118510443723E+04   -0.64637E-03   -0.64669E-03  2944   0.321E-02-0.792E-05
 gam= 0.553 trial= 0.142  step= 0.127 mean= 0.142
 gam= 0.958 g(H,U,f)=  0.764E-03 0.166E-02 0.654E-03 ort(H,U,f) = 0.503E-03-0.213E-03-0.291E-03
CGA:  14    -0.118510464092E+04   -0.20369E-03   -0.20367E-03  2944   0.307E-02-0.236E-06
 gam= 0.958 trial= 0.141  step= 0.084 mean= 0.141
 gam= 0.564 g(H,U,f)=  0.569E-03 0.950E-03 0.214E-03 ort(H,U,f) = 0.551E-03-0.357E-03-0.192E-03
CGA:  15    -0.118510477002E+04   -0.12910E-03   -0.12899E-03  2944   0.173E-02 0.159E-05
 gam= 0.564 trial= 0.138  step= 0.167 mean= 0.138
 gam= 0.542 g(H,U,f)=  0.392E-03 0.447E-03 0.100E-03 ort(H,U,f) = 0.234E-03-0.147E-03-0.837E-04
CGA:  16    -0.118510491462E+04   -0.14459E-03   -0.14455E-03  2944   0.940E-03 0.269E-05
 gam= 0.542 trial= 0.140  step= 0.198 mean= 0.140
 gam= 1.452 g(H,U,f)=  0.250E-03 0.820E-03 0.294E-03 ort(H,U,f) = 0.194E-03-0.125E-03-0.633E-04
CGA:  17    -0.118510500808E+04   -0.93463E-04   -0.93376E-04  2944   0.136E-02 0.592E-05
 gam= 1.452 trial= 0.143  step= 0.068 mean= 0.143
 gam= 0.328 g(H,U,f)=  0.184E-03 0.199E-03 0.637E-04 ort(H,U,f) = 0.216E-03-0.114E-03-0.991E-04
CGA:  18    -0.118510505453E+04   -0.46451E-04   -0.46585E-04  2944   0.447E-03 0.315E-05
 gam= 0.328 trial= 0.139  step= 0.183 mean= 0.139
 gam= 0.690 g(H,U,f)=  0.126E-03 0.147E-03 0.364E-04 ort(H,U,f) = 0.108E-03-0.827E-04-0.234E-04
CGA:  19    -0.118510509559E+04   -0.41064E-04   -0.41018E-04  2944   0.309E-03 0.183E-05
 gam= 0.690 trial= 0.141  step= 0.161 mean= 0.141
 gam= 1.361 g(H,U,f)=  0.872E-04 0.245E-03 0.882E-04 ort(H,U,f) = 0.987E-04-0.696E-04-0.269E-04
CGA:  20    -0.118510512052E+04   -0.24930E-04   -0.24903E-04  2944   0.420E-03 0.219E-05
 gam= 1.361 trial= 0.142  step= 0.084 mean= 0.142
 gam= 0.453 g(H,U,f)=  0.629E-04 0.103E-03 0.243E-04 ort(H,U,f) = 0.109E-03-0.797E-04-0.281E-04
CGA:  21    -0.118510513818E+04   -0.17653E-04   -0.17678E-04  2944   0.190E-03 0.130E-05
 gam= 0.453 trial= 0.139  step= 0.139 mean= 0.139
 gam= 0.454 g(H,U,f)=  0.420E-04 0.398E-04 0.446E-05 ort(H,U,f) = 0.451E-04-0.406E-04-0.441E-05
CGA:  22    -0.118510515143E+04   -0.13255E-04   -0.13255E-04  2944   0.863E-04 0.582E-07
 gam= 0.454 trial= 0.139  step= 0.179 mean= 0.139
 gam= 1.655 g(H,U,f)=  0.298E-04 0.842E-04 0.287E-04 ort(H,U,f) = 0.337E-04-0.277E-04-0.656E-05
CGA:  23    -0.118510515915E+04   -0.77190E-05   -0.77312E-05  2944   0.143E-03-0.528E-06
 gam= 1.655 trial= 0.141  step= 0.083 mean= 0.141
 final diagonalization
   9 F= -.11851052E+04 E0= -.11850856E+04  d E =-.172309E-01  mag=   118.0000
quench:  g(F)=  0.000E+00 g(S)=  0.000E+00 dE (1.order)= 0.000E+00
 bond charge predicted
 wavefunctions rotated
       N       E                     dE             d eps       ncg     rms          ort
 gam= 0.000 g(H,U,f)=  0.882E+01 0.214E+01 0.477E+00 ort(H,U,f) = 0.000E+00 0.000E+00 0.000E+00
SDA:   1    -0.118191908076E+04    0.31861E+01    0.00000E+00  2944   0.114E+02 0.000E+00
 gam= 0.000 trial= 0.138  step= 0.126 mean= 0.138
 gam= 1.737 g(H,U,f)=  0.570E+01 0.820E+01 0.597E+01 ort(H,U,f) = 0.581E+01-0.311E+01-0.247E+01
CGA:   2    -0.118263229283E+04   -0.71321E+00   -0.71799E+00  2944   0.199E+02 0.227E+00
 gam= 1.737 trial= 0.138  step= 0.136 mean= 0.138
 gam= 0.372 g(H,U,f)=  0.378E+01 0.262E+01 0.983E+00 ort(H,U,f) = 0.211E+01-0.188E+01-0.748E+00
CGA:   3    -0.118401467610E+04   -0.13824E+01   -0.13818E+01  2944   0.739E+01-0.516E+00
 gam= 0.372 trial= 0.137  step= 0.133 mean= 0.137
 gam= 0.707 g(H,U,f)=  0.224E+01 0.228E+01 0.708E+00 ort(H,U,f) = 0.179E+01-0.153E+01-0.328E+00
CGA:   4    -0.118449267771E+04   -0.47800E+00   -0.47765E+00  2944   0.522E+01-0.729E-01
 gam= 0.707 trial= 0.137  step= 0.105 mean= 0.137
 gam= 0.800 g(H,U,f)=  0.120E+01 0.253E+01 0.450E+00 ort(H,U,f) = 0.173E+01-0.149E+01-0.258E+00
CGA:   5    -0.118476570831E+04   -0.27303E+00   -0.27218E+00  2944   0.418E+01-0.198E-01
 gam= 0.800 trial= 0.136  step= 0.094 mean= 0.136
 gam= 0.243 g(H,U,f)=  0.458E+00 0.411E+00 0.145E+00 ort(H,U,f) = 0.573E+00-0.419E+00-0.190E+00
CGA:   6    -0.118496844697E+04   -0.20274E+00   -0.19586E+00  2944   0.101E+01-0.365E-01
 gam= 0.243 trial= 0.134  step= 0.118 mean= 0.134
 gam= 0.818 g(H,U,f)=  0.256E+00 0.453E+00 0.121E+00 ort(H,U,f) = 0.296E+00-0.242E+00-0.705E-01
CGA:   7    -0.118502828589E+04   -0.59839E-01   -0.59493E-01  2944   0.830E+00-0.167E-01
 gam= 0.818 trial= 0.133  step= 0.085 mean= 0.133
 gam= 0.560 g(H,U,f)=  0.157E+00 0.253E+00 0.551E-01 ort(H,U,f) = 0.241E+00-0.189E+00-0.517E-01
CGA:   8    -0.118506270830E+04   -0.34422E-01   -0.34507E-01  2944   0.464E+00-0.460E-03
 gam= 0.560 trial= 0.130  step= 0.149 mean= 0.130
 gam= 0.243 g(H,U,f)=  0.501E-01 0.523E-01 0.103E-01 ort(H,U,f) = 0.499E-01-0.429E-01-0.769E-02
CGA:   9    -0.118509733598E+04   -0.34628E-01   -0.34638E-01  2944   0.113E+00-0.664E-03
 gam= 0.243 trial= 0.131  step= 0.094 mean= 0.131
 gam= 1.060 g(H,U,f)=  0.355E-01 0.643E-01 0.197E-01 ort(H,U,f) = 0.402E-01-0.291E-01-0.109E-01
CGA:  10    -0.118510260987E+04   -0.52739E-02   -0.52919E-02  2944   0.119E+00 0.147E-03
 gam= 1.060 trial= 0.129  step= 0.125 mean= 0.129
 gam= 0.386 g(H,U,f)=  0.170E-01 0.247E-01 0.438E-02 ort(H,U,f) = 0.216E-01-0.179E-01-0.435E-02
CGA:  11    -0.118511011775E+04   -0.75079E-02   -0.75053E-02  2944   0.461E-01-0.584E-03
 gam= 0.386 trial= 0.129  step= 0.153 mean= 0.129
 gam= 0.871 g(H,U,f)=  0.936E-02 0.231E-01 0.770E-02 ort(H,U,f) = 0.845E-02-0.508E-02-0.303E-02
CGA:  12    -0.118511362599E+04   -0.35082E-02   -0.35023E-02  2944   0.401E-01 0.340E-03
 gam= 0.871 trial= 0.130  step= 0.070 mean= 0.130
 gam= 0.434 g(H,U,f)=  0.692E-02 0.896E-02 0.155E-02 ort(H,U,f) = 0.781E-02-0.588E-02-0.192E-02
CGA:  13    -0.118511505166E+04   -0.14257E-02   -0.14243E-02  2944   0.174E-01 0.207E-04
 gam= 0.434 trial= 0.127  step= 0.173 mean= 0.127
 gam= 0.845 g(H,U,f)=  0.412E-02 0.904E-02 0.157E-02 ort(H,U,f) = 0.351E-02-0.269E-02-0.789E-03
CGA:  14    -0.118511656144E+04   -0.15098E-02   -0.15089E-02  2944   0.147E-01 0.299E-04
 gam= 0.845 trial= 0.130  step= 0.119 mean= 0.130
 gam= 0.868 g(H,U,f)=  0.280E-02 0.756E-02 0.242E-02 ort(H,U,f) = 0.259E-02-0.170E-02-0.877E-03
CGA:  15    -0.118511743958E+04   -0.87814E-03   -0.87825E-03  2944   0.128E-01 0.130E-04
 gam= 0.868 trial= 0.129  step= 0.082 mean= 0.129
 gam= 0.393 g(H,U,f)=  0.198E-02 0.239E-02 0.646E-03 ort(H,U,f) = 0.171E-02-0.886E-03-0.817E-03
CGA:  16    -0.118511796529E+04   -0.52571E-03   -0.52602E-03  2944   0.502E-02 0.664E-05
 gam= 0.393 trial= 0.127  step= 0.173 mean= 0.127
 gam= 0.961 g(H,U,f)=  0.145E-02 0.265E-02 0.721E-03 ort(H,U,f) = 0.108E-02-0.734E-03-0.334E-03
CGA:  17    -0.118511839917E+04   -0.43388E-03   -0.43368E-03  2944   0.482E-02 0.673E-05
 gam= 0.961 trial= 0.129  step= 0.108 mean= 0.129
 gam= 1.011 g(H,U,f)=  0.108E-02 0.307E-02 0.727E-03 ort(H,U,f) = 0.122E-02-0.852E-03-0.362E-03
CGA:  18    -0.118511865964E+04   -0.26047E-03   -0.26058E-03  2944   0.488E-02 0.557E-05
 gam= 1.011 trial= 0.128  step= 0.115 mean= 0.128
 gam= 0.339 g(H,U,f)=  0.730E-03 0.748E-03 0.175E-03 ort(H,U,f) = 0.710E-03-0.517E-03-0.187E-03
CGA:  19    -0.118511893993E+04   -0.28029E-03   -0.28033E-03  2944   0.165E-02 0.498E-05
 gam= 0.339 trial= 0.127  step= 0.152 mean= 0.127
 gam= 1.359 g(H,U,f)=  0.529E-03 0.132E-02 0.400E-03 ort(H,U,f) = 0.521E-03-0.372E-03-0.141E-03
CGA:  20    -0.118511906618E+04   -0.12625E-03   -0.12612E-03  2944   0.225E-02 0.832E-05
 gam= 1.359 trial= 0.129  step= 0.093 mean= 0.129
 gam= 0.528 g(H,U,f)=  0.412E-03 0.618E-03 0.157E-03 ort(H,U,f) = 0.648E-03-0.496E-03-0.148E-03
CGA:  21    -0.118511917082E+04   -0.10464E-03   -0.10471E-03  2944   0.119E-02 0.331E-05
 gam= 0.528 trial= 0.127  step= 0.161 mean= 0.127
 gam= 0.679 g(H,U,f)=  0.264E-03 0.424E-03 0.119E-03 ort(H,U,f) = 0.304E-03-0.238E-03-0.582E-04
CGA:  22    -0.118511926663E+04   -0.95812E-04   -0.95655E-04  2944   0.806E-03 0.860E-05
 gam= 0.679 trial= 0.129  step= 0.098 mean= 0.129
 gam= 0.935 g(H,U,f)=  0.202E-03 0.433E-03 0.118E-03 ort(H,U,f) = 0.297E-03-0.218E-03-0.772E-04
CGA:  23    -0.118511930646E+04   -0.39830E-04   -0.39860E-04  2944   0.753E-03 0.213E-05
 gam= 0.935 trial= 0.127  step= 0.123 mean= 0.127
 gam= 0.385 g(H,U,f)=  0.137E-03 0.133E-03 0.203E-04 ort(H,U,f) = 0.186E-03-0.162E-03-0.215E-04
CGA:  24    -0.118511935285E+04   -0.46389E-04   -0.46396E-04  2944   0.290E-03 0.311E-05
 gam= 0.385 trial= 0.127  step= 0.170 mean= 0.127
 gam= 1.680 g(H,U,f)=  0.953E-04 0.304E-03 0.881E-04 ort(H,U,f) = 0.118E-03-0.937E-04-0.234E-04
CGA:  25    -0.118511937759E+04   -0.24744E-04   -0.24728E-04  2944   0.487E-03 0.718E-06
 gam= 1.680 trial= 0.129  step= 0.090 mean= 0.129
 gam= 0.390 g(H,U,f)=  0.676E-04 0.100E-03 0.225E-04 ort(H,U,f) = 0.118E-03-0.924E-04-0.245E-04
CGA:  26    -0.118511939967E+04   -0.22079E-04   -0.22097E-04  2944   0.190E-03 0.769E-06
 gam= 0.390 trial= 0.127  step= 0.147 mean= 0.127
[...]
CGA:   8    -0.118519087799E+04   -0.13604E-02   -0.13600E-02  2944   0.609E-02 0.995E-05
 gam= 0.479 trial= 0.145  step= 0.115 mean= 0.145
 gam= 1.003 g(H,U,f)=  0.133E-02 0.408E-02 0.704E-03 ort(H,U,f) = 0.139E-02-0.104E-02-0.349E-03
CGA:   9    -0.118519122967E+04   -0.35168E-03   -0.35161E-03  2944   0.611E-02-0.210E-05
 gam= 1.003 trial= 0.144  step= 0.072 mean= 0.144
 gam= 0.336 g(H,U,f)=  0.820E-03 0.111E-02 0.117E-03 ort(H,U,f) = 0.959E-03-0.827E-03-0.138E-03
CGA:  10    -0.118519144867E+04   -0.21901E-03   -0.21941E-03  2944   0.205E-02-0.618E-05
 gam= 0.336 trial= 0.140  step= 0.154 mean= 0.140
 gam= 0.437 g(H,U,f)=  0.477E-03 0.396E-03 0.234E-04 ort(H,U,f) = 0.308E-03-0.281E-03-0.324E-04
CGA:  11    -0.118519160677E+04   -0.15810E-03   -0.15816E-03  2944   0.896E-03-0.520E-05
 gam= 0.437 trial= 0.141  step= 0.281 mean= 0.141
 gam= 1.379 g(H,U,f)=  0.233E-03 0.868E-03 0.135E-03 ort(H,U,f) = 0.104E-03-0.873E-04-0.166E-04
CGA:  12    -0.118519173228E+04   -0.12551E-03   -0.12549E-03  2944   0.124E-02 0.282E-06
 gam= 1.379 trial= 0.148  step= 0.055 mean= 0.148
 gam= 0.326 g(H,U,f)=  0.174E-03 0.203E-03 0.259E-04 ort(H,U,f) = 0.134E-03-0.956E-04-0.396E-04
CGA:  13    -0.118519176628E+04   -0.34006E-04   -0.33992E-04  2944   0.402E-03-0.723E-06
 gam= 0.326 trial= 0.143  step= 0.180 mean= 0.143
 gam= 0.722 g(H,U,f)=  0.116E-03 0.150E-03 0.245E-04 ort(H,U,f) = 0.685E-04-0.546E-04-0.141E-04
CGA:  14    -0.118519180245E+04   -0.36162E-04   -0.36168E-04  2944   0.290E-03-0.278E-06
 gam= 0.722 trial= 0.145  step= 0.191 mean= 0.145
 gam= 0.857 g(H,U,f)=  0.772E-04 0.147E-03 0.243E-04 ort(H,U,f) = 0.452E-04-0.319E-04-0.115E-04
CGA:  15    -0.118519183015E+04   -0.27700E-04   -0.27656E-04  2944   0.249E-03 0.188E-05
 gam= 0.857 trial= 0.147  step= 0.098 mean= 0.147
 gam= 0.967 g(H,U,f)=  0.575E-04 0.158E-03 0.249E-04 ort(H,U,f) = 0.551E-04-0.427E-04-0.114E-04
CGA:  16    -0.118519184242E+04   -0.12272E-04   -0.12296E-04  2944   0.241E-03 0.990E-06
 gam= 0.967 trial= 0.145  step= 0.093 mean= 0.145
 gam= 0.374 g(H,U,f)=  0.417E-04 0.421E-04 0.604E-05 ort(H,U,f) = 0.397E-04-0.318E-04-0.724E-05
CGA:  17    -0.118519185358E+04   -0.11158E-04   -0.11177E-04  2944   0.899E-04 0.651E-06
 gam= 0.374 trial= 0.142  step= 0.216 mean= 0.142
 gam= 0.656 g(H,U,f)=  0.285E-04 0.260E-04 0.443E-05 ort(H,U,f) = 0.188E-04-0.147E-04-0.294E-05
CGA:  18    -0.118519186334E+04   -0.97594E-05   -0.97187E-05  2944   0.590E-04 0.109E-05
 gam= 0.656 trial= 0.146  step= 0.175 mean= 0.146
 final diagonalization
  26 F= -.11851919E+04 E0= -.11851722E+04  d E =-.646592E-02  mag=   118.0000
quench:  g(F)=  0.000E+00 g(S)=  0.000E+00 dE (1.order)= 0.000E+00
 bond charge predicted
 wavefunctions rotated
       N       E                     dE             d eps       ncg     rms          ort
 gam= 0.000 g(H,U,f)=  0.456E-01 0.274E+00 0.787E-01 ort(H,U,f) = 0.000E+00 0.000E+00 0.000E+00
SDA:   1    -0.118517543849E+04    0.16415E-01    0.00000E+00  2944   0.398E+00 0.000E+00
 gam= 0.000 trial= 0.147  step= 0.036 mean= 0.147
 gam= 0.080 g(H,U,f)=  0.274E-01 0.402E-02 0.495E-03 ort(H,U,f) = 0.258E-01-0.225E-01-0.346E-02
CGA:   2    -0.118518252917E+04   -0.70907E-02   -0.70851E-02  2944   0.319E-01-0.225E-03
 gam= 0.080 trial= 0.142  step= 0.362 mean= 0.142
 gam= 1.553 g(H,U,f)=  0.136E-01 0.310E-01 0.501E-02 ort(H,U,f) = 0.883E-02-0.775E-02-0.117E-02
CGA:   3    -0.118518829345E+04   -0.57643E-02   -0.57745E-02  2944   0.496E-01-0.100E-03
 gam= 1.553 trial= 0.153  step= 0.125 mean= 0.153
 gam= 0.202 g(H,U,f)=  0.727E-02 0.236E-02 0.381E-03 ort(H,U,f) = 0.374E-02-0.316E-02-0.546E-03
CGA:   4    -0.118519138345E+04   -0.30900E-02   -0.30919E-02  2944   0.100E-01 0.302E-04
 gam= 0.202 trial= 0.151  step= 0.241 mean= 0.151
 gam= 0.629 g(H,U,f)=  0.285E-02 0.297E-02 0.476E-03 ort(H,U,f) = 0.221E-02-0.181E-02-0.301E-03
CGA:   5    -0.118519259531E+04   -0.12119E-02   -0.12071E-02  2944   0.630E-02 0.940E-04
 gam= 0.629 trial= 0.156  step= 0.162 mean= 0.156
 gam= 0.853 g(H,U,f)=  0.112E-02 0.360E-02 0.651E-03 ort(H,U,f) = 0.104E-02-0.846E-03-0.180E-03
CGA:   6    -0.118519310904E+04   -0.51373E-03   -0.51366E-03  2944   0.537E-02 0.145E-04
 gam= 0.853 trial= 0.156  step= 0.052 mean= 0.156
 gam= 0.249 g(H,U,f)=  0.750E-03 0.526E-03 0.587E-04 ort(H,U,f) = 0.966E-03-0.817E-03-0.145E-03
CGA:   7    -0.118519324836E+04   -0.13932E-03   -0.13923E-03  2944   0.134E-02 0.409E-05
 gam= 0.249 trial= 0.151  step= 0.226 mean= 0.151
 gam= 0.396 g(H,U,f)=  0.266E-03 0.246E-03 0.162E-04 ort(H,U,f) = 0.190E-03-0.172E-03-0.143E-04
CGA:   8    -0.118519339939E+04   -0.15103E-03   -0.15087E-03  2944   0.529E-03 0.353E-05
 gam= 0.396 trial= 0.155  step= 0.216 mean= 0.155
 gam= 0.508 g(H,U,f)=  0.996E-04 0.151E-03 0.182E-04 ort(H,U,f) = 0.570E-04-0.526E-04-0.705E-05
CGA:   9    -0.118519345645E+04   -0.57061E-04   -0.57151E-04  2944   0.269E-03-0.266E-05
 gam= 0.508 trial= 0.158  step= 0.102 mean= 0.158
 gam= 0.949 g(H,U,f)=  0.709E-04 0.157E-03 0.272E-04 ort(H,U,f) = 0.674E-04-0.573E-04-0.101E-04
CGA:  10    -0.118519347014E+04   -0.13692E-04   -0.13691E-04  2944   0.255E-03-0.872E-07
 gam= 0.949 trial= 0.155  step= 0.085 mean= 0.155
 gam= 0.549 g(H,U,f)=  0.512E-04 0.745E-04 0.143E-04 ort(H,U,f) = 0.649E-04-0.492E-04-0.160E-04
CGA:  11    -0.118519348092E+04   -0.10779E-04   -0.10767E-04  2944   0.140E-03-0.343E-06
 gam= 0.549 trial= 0.151  step= 0.204 mean= 0.151
 gam= 0.511 g(H,U,f)=  0.268E-04 0.416E-04 0.309E-05 ort(H,U,f) = 0.123E-04-0.109E-04-0.230E-05
CGA:  12    -0.118519349516E+04   -0.14238E-04   -0.14263E-04  2944   0.715E-04-0.903E-06
 gam= 0.511 trial= 0.154  step= 0.155 mean= 0.154
 gam= 0.584 g(H,U,f)=  0.190E-04 0.210E-04 0.179E-05 ort(H,U,f) = 0.978E-05-0.882E-05-0.106E-05
CGA:  13    -0.118519350065E+04   -0.54877E-05   -0.54878E-05  2944   0.418E-04-0.103E-06
 gam= 0.584 trial= 0.154  step= 0.134 mean= 0.154
 final diagonalization
  27 F= -.11851935E+04 E0= -.11851739E+04  d E =-.163731E-02  mag=   118.0000
quench:  g(F)=  0.000E+00 g(S)=  0.000E+00 dE (1.order)= 0.000E+00
 bond charge predicted
 wavefunctions rotated
       N       E                     dE             d eps       ncg     rms          ort
 gam= 0.000 g(H,U,f)=  0.272E+01 0.294E+01 0.723E+00 ort(H,U,f) = 0.000E+00 0.000E+00 0.000E+00
SDA:   1    -0.118421877935E+04    0.97472E+00    0.00000E+00  2944   0.638E+01 0.000E+00
 gam= 0.000 trial= 0.153  step= 0.054 mean= 0.153
 gam= 0.569 g(H,U,f)=  0.204E+01 0.109E+01 0.502E+00 ort(H,U,f) = 0.209E+01-0.159E+01-0.749E+00
CGA:   2    -0.118438797155E+04   -0.16919E+00   -0.17288E+00  2944   0.363E+01-0.249E+00
 gam= 0.569 trial= 0.148  step= 0.300 mean= 0.148
 gam= 0.574 g(H,U,f)=  0.919E+00 0.970E+00 0.194E+00 ort(H,U,f) = 0.297E+00-0.283E+00-0.554E-01
CGA:   3    -0.118490781457E+04   -0.51984E+00   -0.52302E+00  2944   0.208E+01-0.412E-01
 gam= 0.574 trial= 0.156  step= 0.122 mean= 0.156
 gam= 0.422 g(H,U,f)=  0.573E+00 0.275E+00 0.304E-01 ort(H,U,f) = 0.446E+00-0.375E+00-0.447E-01
CGA:   4    -0.118503083693E+04   -0.12302E+00   -0.12514E+00  2944   0.879E+00 0.264E-01
 gam= 0.422 trial= 0.154  step= 0.248 mean= 0.154
 gam= 0.722 g(H,U,f)=  0.173E+00 0.402E+00 0.594E-01 ort(H,U,f) = 0.123E+00-0.125E+00-0.137E-01
CGA:   5    -0.118514019425E+04   -0.10936E+00   -0.11020E+00  2944   0.635E+00-0.160E-01
 gam= 0.722 trial= 0.159  step= 0.056 mean= 0.159
 gam= 0.440 g(H,U,f)=  0.125E+00 0.131E+00 0.225E-01 ort(H,U,f) = 0.132E+00-0.107E+00-0.288E-01
CGA:   6    -0.118515746670E+04   -0.17272E-01   -0.17427E-01  2944   0.279E+00-0.454E-02
 gam= 0.440 trial= 0.154  step= 0.147 mean= 0.154
 gam= 0.412 g(H,U,f)=  0.525E-01 0.552E-01 0.734E-02 ort(H,U,f) = 0.577E-01-0.532E-01-0.771E-02
CGA:   7    -0.118517788039E+04   -0.20414E-01   -0.20391E-01  2944   0.115E+00-0.319E-02
 gam= 0.412 trial= 0.153  step= 0.178 mean= 0.153
 gam= 0.423 g(H,U,f)=  0.198E-01 0.262E-01 0.269E-02 ort(H,U,f) = 0.162E-01-0.140E-01-0.213E-02
CGA:   8    -0.118518798341E+04   -0.10103E-01   -0.10103E-01  2944   0.486E-01 0.171E-04
 gam= 0.423 trial= 0.154  step= 0.131 mean= 0.154
 gam= 0.887 g(H,U,f)=  0.921E-02 0.289E-01 0.506E-02 ort(H,U,f) = 0.951E-02-0.825E-02-0.120E-02
CGA:   9    -0.118519117948E+04   -0.31961E-02   -0.31982E-02  2944   0.432E-01 0.528E-04
 gam= 0.887 trial= 0.153  step= 0.062 mean= 0.153
 gam= 0.339 g(H,U,f)=  0.638E-02 0.715E-02 0.108E-02 ort(H,U,f) = 0.872E-02-0.714E-02-0.176E-02
CGA:  10    -0.118519250944E+04   -0.13300E-02   -0.13383E-02  2944   0.146E-01-0.183E-03
 gam= 0.339 trial= 0.149  step= 0.184 mean= 0.149
 gam= 0.754 g(H,U,f)=  0.367E-02 0.674E-02 0.607E-03 ort(H,U,f) = 0.319E-02-0.275E-02-0.442E-03
CGA:  11    -0.118519384873E+04   -0.13393E-02   -0.13392E-02  2944   0.110E-01 0.355E-05
 gam= 0.754 trial= 0.150  step= 0.188 mean= 0.150
 gam= 0.392 g(H,U,f)=  0.166E-02 0.238E-02 0.271E-03 ort(H,U,f) = 0.604E-03-0.489E-03-0.577E-04
CGA:  12    -0.118519488541E+04   -0.10367E-02   -0.10351E-02  2944   0.432E-02 0.573E-04
 gam= 0.392 trial= 0.152  step= 0.079 mean= 0.152
 gam= 1.014 g(H,U,f)=  0.138E-02 0.259E-02 0.406E-03 ort(H,U,f) = 0.129E-02-0.991E-03-0.296E-03
CGA:  13    -0.118519505742E+04   -0.17201E-03   -0.17189E-03  2944   0.438E-02 0.428E-06
 gam= 1.014 trial= 0.149  step= 0.182 mean= 0.149
 gam= 0.575 g(H,U,f)=  0.881E-03 0.152E-02 0.113E-03 ort(H,U,f) = 0.558E-03-0.480E-03-0.627E-04
CGA:  14    -0.118519545607E+04   -0.39866E-03   -0.39829E-03  2944   0.252E-02 0.156E-04
 gam= 0.575 trial= 0.150  step= 0.166 mean= 0.150
 gam= 0.618 g(H,U,f)=  0.605E-03 0.836E-03 0.115E-03 ort(H,U,f) = 0.321E-03-0.247E-03-0.688E-04
CGA:  15    -0.118519566527E+04   -0.20920E-03   -0.20912E-03  2944   0.156E-02 0.561E-05
 gam= 0.618 trial= 0.151  step= 0.141 mean= 0.151
 gam= 1.249 g(H,U,f)=  0.434E-03 0.131E-02 0.203E-03 ort(H,U,f) = 0.349E-03-0.283E-03-0.622E-04
CGA:  16    -0.118519577561E+04   -0.11034E-03   -0.11036E-03  2944   0.194E-02 0.385E-05
 gam= 1.249 trial= 0.151  step= 0.073 mean= 0.151
 gam= 0.425 g(H,U,f)=  0.375E-03 0.385E-03 0.657E-04 ort(H,U,f) = 0.462E-03-0.372E-03-0.870E-04
CGA:  17    -0.118519584679E+04   -0.71179E-04   -0.71234E-04  2944   0.826E-03 0.275E-05
 gam= 0.425 trial= 0.147  step= 0.294 mean= 0.147
 gam= 0.674 g(H,U,f)=  0.214E-03 0.284E-03 0.584E-04 ort(H,U,f) = 0.134E-03-0.104E-03-0.266E-04
CGA:  18    -0.118519596840E+04   -0.12162E-03   -0.12142E-03  2944   0.556E-03 0.277E-05
 gam= 0.674 trial= 0.154  step= 0.128 mean= 0.154
 gam= 0.989 g(H,U,f)=  0.159E-03 0.334E-03 0.565E-04 ort(H,U,f) = 0.169E-03-0.137E-03-0.311E-04
CGA:  19    -0.118519600414E+04   -0.35733E-04   -0.35743E-04  2944   0.550E-03 0.842E-06
 gam= 0.989 trial= 0.153  step= 0.077 mean= 0.153
 gam= 0.608 g(H,U,f)=  0.131E-03 0.186E-03 0.168E-04 ort(H,U,f) = 0.204E-03-0.185E-03-0.183E-04
CGA:  20    -0.118519602532E+04   -0.21181E-04   -0.21187E-04  2944   0.334E-03 0.329E-06
 gam= 0.608 trial= 0.149  step= 0.225 mean= 0.149
 gam= 0.629 g(H,U,f)=  0.757E-04 0.123E-03 0.120E-04 ort(H,U,f) = 0.765E-04-0.728E-04-0.517E-05
CGA:  21    -0.118519606283E+04   -0.37514E-04   -0.37568E-04  2944   0.210E-03-0.146E-05
 gam= 0.629 trial= 0.153  step= 0.144 mean= 0.153
 gam= 0.707 g(H,U,f)=  0.536E-04 0.802E-04 0.149E-04 ort(H,U,f) = 0.552E-04-0.480E-04-0.736E-05
CGA:  22    -0.118519607793E+04   -0.15102E-04   -0.15102E-04  2944   0.149E-03-0.132E-06
 gam= 0.707 trial= 0.152  step= 0.091 mean= 0.152
 gam= 1.079 g(H,U,f)=  0.423E-04 0.104E-03 0.143E-04 ort(H,U,f) = 0.631E-04-0.545E-04-0.906E-05
CGA:  23    -0.118519608469E+04   -0.67569E-05   -0.67423E-05  2944   0.160E-03-0.448E-06
 gam= 1.079 trial= 0.149  step= 0.161 mean= 0.149
 gam= 0.447 g(H,U,f)=  0.305E-04 0.381E-04 0.303E-05 ort(H,U,f) = 0.346E-04-0.325E-04-0.324E-05
CGA:  24    -0.118519609758E+04   -0.12889E-04   -0.12895E-04  2944   0.717E-04-0.109E-05
 gam= 0.447 trial= 0.150  step= 0.244 mean= 0.150
 gam= 1.114 g(H,U,f)=  0.203E-04 0.518E-04 0.777E-05 ort(H,U,f) = 0.139E-04-0.127E-04-0.140E-05
CGA:  25    -0.118519610626E+04   -0.86821E-05   -0.86912E-05  2944   0.799E-04-0.212E-06
 gam= 1.114 trial= 0.155  step= 0.073 mean= 0.155
 final diagonalization
  28 F= -.11851961E+04 E0= -.11851764E+04  d E =-.260561E-02  mag=   118.0000
quench:  g(F)=  0.000E+00 g(S)=  0.000E+00 dE (1.order)= 0.000E+00
 bond charge predicted
 wavefunctions rotated
       N       E                     dE             d eps       ncg     rms          ort
 gam= 0.000 g(H,U,f)=  0.188E+00 0.455E-01 0.580E-02 ort(H,U,f) = 0.000E+00 0.000E+00 0.000E+00
SDA:   1    -0.118512979191E+04    0.66306E-01    0.00000E+00  2944   0.239E+00 0.000E+00
 gam= 0.000 trial= 0.151  step= 0.131 mean= 0.151
 gam= 2.051 g(H,U,f)=  0.121E+00 0.310E+00 0.600E-01 ort(H,U,f) = 0.125E+00-0.105E+00-0.189E-01
CGA:   2    -0.118514541771E+04   -0.15626E-01   -0.15653E-01  2944   0.491E+00 0.933E-03
 gam= 2.051 trial= 0.150  step= 0.121 mean= 0.150
 gam= 0.321 g(H,U,f)=  0.723E-01 0.752E-01 0.984E-02 ort(H,U,f) = 0.558E-01-0.475E-01-0.752E-02
CGA:   3    -0.118517512608E+04   -0.29708E-01   -0.29753E-01  2944   0.157E+00 0.812E-03
 gam= 0.321 trial= 0.148  step= 0.130 mean= 0.148
 gam= 0.477 g(H,U,f)=  0.458E-01 0.255E-01 0.372E-02 ort(H,U,f) = 0.348E-01-0.311E-01-0.529E-02
CGA:   4    -0.118518537821E+04   -0.10252E-01   -0.10212E-01  2944   0.750E-01-0.153E-02
 gam= 0.477 trial= 0.147  step= 0.234 mean= 0.147
 gam= 0.360 g(H,U,f)=  0.136E-01 0.119E-01 0.144E-02 ort(H,U,f) = 0.786E-02-0.701E-02-0.696E-03
CGA:   5    -0.118519405537E+04   -0.86772E-02   -0.86693E-02  2944   0.270E-01 0.155E-03
 gam= 0.360 trial= 0.152  step= 0.113 mean= 0.152
 gam= 1.169 g(H,U,f)=  0.792E-02 0.205E-01 0.318E-02 ort(H,U,f) = 0.822E-02-0.710E-02-0.115E-02
CGA:   6    -0.118519558850E+04   -0.15331E-02   -0.15298E-02  2944   0.316E-01-0.307E-04
 gam= 1.169 trial= 0.150  step= 0.077 mean= 0.150
 gam= 0.296 g(H,U,f)=  0.408E-02 0.451E-02 0.741E-03 ort(H,U,f) = 0.657E-02-0.555E-02-0.104E-02
CGA:   7    -0.118519680699E+04   -0.12185E-02   -0.12201E-02  2944   0.934E-02-0.205E-04
 gam= 0.296 trial= 0.146  step= 0.163 mean= 0.146
 gam= 0.431 g(H,U,f)=  0.171E-02 0.213E-02 0.187E-03 ort(H,U,f) = 0.146E-02-0.125E-02-0.204E-03
CGA:   8    -0.118519756896E+04   -0.76197E-03   -0.76195E-03  2944   0.403E-02 0.671E-06
 gam= 0.431 trial= 0.147  step= 0.170 mean= 0.147
 gam= 0.366 g(H,U,f)=  0.653E-03 0.728E-03 0.924E-04 ort(H,U,f) = 0.472E-03-0.429E-03-0.427E-04
CGA:   9    -0.118519791219E+04   -0.34323E-03   -0.34323E-03  2944   0.147E-02 0.918E-06
 gam= 0.366 trial= 0.148  step= 0.120 mean= 0.148
 gam= 1.248 g(H,U,f)=  0.428E-03 0.122E-02 0.189E-03 ort(H,U,f) = 0.448E-03-0.365E-03-0.825E-04
CGA:  10    -0.118519800075E+04   -0.88560E-04   -0.88567E-04  2944   0.184E-02-0.145E-06
 gam= 1.248 trial= 0.147  step= 0.082 mean= 0.147
 gam= 0.434 g(H,U,f)=  0.283E-03 0.445E-03 0.694E-04 ort(H,U,f) = 0.394E-03-0.318E-03-0.763E-04
CGA:  11    -0.118519807587E+04   -0.75114E-04   -0.75265E-04  2944   0.797E-03-0.658E-06
 gam= 0.434 trial= 0.143  step= 0.198 mean= 0.143
 gam= 0.325 g(H,U,f)=  0.131E-03 0.114E-03 0.145E-04 ort(H,U,f) = 0.418E-04-0.250E-04-0.127E-04
CGA:  12    -0.118519815505E+04   -0.79181E-04   -0.79060E-04  2944   0.259E-03 0.410E-05
 gam= 0.325 trial= 0.146  step= 0.188 mean= 0.146
 gam= 1.156 g(H,U,f)=  0.876E-04 0.177E-03 0.350E-04 ort(H,U,f) = 0.613E-04-0.453E-04-0.154E-04
CGA:  13    -0.118519817953E+04   -0.24486E-04   -0.24473E-04  2944   0.300E-03 0.548E-06
 gam= 1.156 trial= 0.148  step= 0.109 mean= 0.148
 gam= 1.147 g(H,U,f)=  0.611E-04 0.256E-03 0.270E-04 ort(H,U,f) = 0.684E-04-0.560E-04-0.121E-04
CGA:  14    -0.118519819587E+04   -0.16335E-04   -0.16342E-04  2944   0.344E-03 0.340E-06
 gam= 1.147 trial= 0.146  step= 0.089 mean= 0.146
 gam= 0.239 g(H,U,f)=  0.409E-04 0.366E-04 0.478E-05 ort(H,U,f) = 0.203E-04-0.123E-04-0.736E-05
CGA:  15    -0.118519821123E+04   -0.15361E-04   -0.15372E-04  2944   0.823E-04 0.578E-06
 gam= 0.239 trial= 0.143  step= 0.229 mean= 0.143
 gam= 0.760 g(H,U,f)=  0.258E-04 0.330E-04 0.376E-05 ort(H,U,f) = 0.126E-04-0.111E-04-0.243E-05
CGA:  16    -0.118519822061E+04   -0.93860E-05   -0.94258E-05  2944   0.625E-04-0.921E-06
 gam= 0.760 trial= 0.148  step= 0.198 mean= 0.148
 final diagonalization
  29 F= -.11851982E+04 E0= -.11851786E+04  d E =-.211435E-02  mag=   118.0000
quench:  g(F)=  0.000E+00 g(S)=  0.000E+00 dE (1.order)= 0.000E+00
 bond charge predicted
 wavefunctions rotated
       N       E                     dE             d eps       ncg     rms          ort
 gam= 0.000 g(H,U,f)=  0.542E-01 0.136E+00 0.249E-01 ort(H,U,f) = 0.000E+00 0.000E+00 0.000E+00
SDA:   1    -0.118517829595E+04    0.19915E-01    0.00000E+00  2944   0.215E+00 0.000E+00
 gam= 0.000 trial= 0.150  step= 0.042 mean= 0.150
 gam= 0.256 g(H,U,f)=  0.410E-01 0.122E-01 0.163E-02 ort(H,U,f) = 0.406E-01-0.353E-01-0.575E-02
CGA:   2    -0.118518278735E+04   -0.44914E-02   -0.45011E-02  2944   0.548E-01-0.485E-03
 gam= 0.256 trial= 0.145  step= 0.353 mean= 0.145
 gam= 0.733 g(H,U,f)=  0.192E-01 0.184E-01 0.255E-02 ort(H,U,f) = 0.686E-02-0.643E-02-0.731E-03
CGA:   3    -0.118519240947E+04   -0.96221E-02   -0.96505E-02  2944   0.402E-01-0.301E-03
 gam= 0.733 trial= 0.155  step= 0.154 mean= 0.155
 gam= 0.573 g(H,U,f)=  0.116E-01 0.997E-02 0.150E-02 ort(H,U,f) = 0.861E-02-0.724E-02-0.137E-02
CGA:   4    -0.118519548245E+04   -0.30730E-02   -0.30730E-02  2944   0.230E-01-0.680E-05
 gam= 0.573 trial= 0.155  step= 0.152 mean= 0.155
 gam= 0.716 g(H,U,f)=  0.486E-02 0.100E-01 0.164E-02 ort(H,U,f) = 0.477E-02-0.420E-02-0.577E-03
CGA:   5    -0.118519723110E+04   -0.17487E-02   -0.17486E-02  2944   0.165E-01-0.144E-04
 gam= 0.716 trial= 0.155  step= 0.062 mean= 0.155
 gam= 0.480 g(H,U,f)=  0.313E-02 0.430E-02 0.493E-03 ort(H,U,f) = 0.469E-02-0.400E-02-0.703E-03
CGA:   6    -0.118519774100E+04   -0.50989E-03   -0.51051E-03  2944   0.793E-02-0.189E-04
 gam= 0.480 trial= 0.150  step= 0.163 mean= 0.150
 gam= 0.218 g(H,U,f)=  0.108E-02 0.614E-03 0.338E-04 ort(H,U,f) = 0.746E-03-0.729E-03-0.365E-04
CGA:   7    -0.118519838651E+04   -0.64551E-03   -0.64571E-03  2944   0.173E-02-0.194E-04
 gam= 0.218 trial= 0.151  step= 0.200 mean= 0.151
 gam= 1.156 g(H,U,f)=  0.502E-03 0.132E-02 0.178E-03 ort(H,U,f) = 0.464E-03-0.417E-03-0.430E-04
CGA:   8    -0.118519855899E+04   -0.17249E-03   -0.17235E-03  2944   0.200E-02 0.372E-05
 gam= 1.156 trial= 0.153  step= 0.078 mean= 0.153
 gam= 0.612 g(H,U,f)=  0.272E-03 0.821E-03 0.132E-03 ort(H,U,f) = 0.440E-03-0.356E-03-0.847E-04
CGA:   9    -0.118519863685E+04   -0.77857E-04   -0.77848E-04  2944   0.122E-02-0.488E-06
 gam= 0.612 trial= 0.150  step= 0.089 mean= 0.150
 gam= 0.183 g(H,U,f)=  0.131E-03 0.834E-04 0.105E-04 ort(H,U,f) = 0.128E-03-0.106E-03-0.212E-04
CGA:  10    -0.118519869144E+04   -0.54592E-04   -0.54679E-04  2944   0.224E-03 0.549E-06
 gam= 0.183 trial= 0.147  step= 0.244 mean= 0.147
 gam= 1.206 g(H,U,f)=  0.808E-04 0.174E-03 0.161E-04 ort(H,U,f) = 0.597E-04-0.516E-04-0.767E-05
CGA:  11    -0.118519871885E+04   -0.27411E-04   -0.27394E-04  2944   0.271E-03 0.393E-06
 gam= 1.206 trial= 0.151  step= 0.113 mean= 0.151
 gam= 1.042 g(H,U,f)=  0.485E-04 0.197E-03 0.368E-04 ort(H,U,f) = 0.559E-04-0.453E-04-0.960E-05
CGA:  12    -0.118519873410E+04   -0.15246E-04   -0.15263E-04  2944   0.282E-03 0.940E-06
 gam= 1.042 trial= 0.149  step= 0.073 mean= 0.149
 gam= 0.207 g(H,U,f)=  0.324E-04 0.230E-04 0.298E-05 ort(H,U,f) = 0.244E-04-0.166E-04-0.711E-05
CGA:  13    -0.118519874447E+04   -0.10376E-04   -0.10396E-04  2944   0.583E-04 0.640E-06
 gam= 0.207 trial= 0.146  step= 0.268 mean= 0.146
 gam= 1.140 g(H,U,f)=  0.215E-04 0.390E-04 0.600E-05 ort(H,U,f) = 0.117E-04-0.923E-05-0.226E-05
CGA:  14    -0.118519875233E+04   -0.78535E-05   -0.78421E-05  2944   0.665E-04 0.183E-06
 gam= 1.140 trial= 0.152  step= 0.126 mean= 0.152
 final diagonalization
  30 F= -.11851988E+04 E0= -.11851791E+04  d E =-.531712E-03  mag=   118.0000
quench:  g(F)=  0.000E+00 g(S)=  0.000E+00 dE (1.order)= 0.000E+00
 reached required accuracy - stopping structural energy minimisation
