       N       E                     dE             d eps       ncg     rms          ort
DAV:   1     0.147816464784E+05    0.14782E+05   -0.58495E+05  1320   0.173E+03
DAV:   2     0.124269260800E+04   -0.13539E+05   -0.13023E+05  1320   0.526E+02
DAV:   3    -0.132023659689E+04   -0.25629E+04   -0.24826E+04  1320   0.207E+02
DAV:   4    -0.148698647452E+04   -0.16675E+03   -0.16230E+03  1320   0.601E+01
DAV:   5    -0.149555583068E+04   -0.85694E+01   -0.79826E+01  1320   0.120E+01
SDA:   6     0.106282088875E+03    0.16018E+04   -0.79826E+01  1320   0.893E+04 0.000E+00
CGA:   7    -0.896667193190E+03   -0.10029E+04   -0.10776E+04  1320   0.144E+04 0.235E+03
CGA:   8    -0.951206482538E+03   -0.54539E+02   -0.94429E+02  1320   0.135E+04-0.315E+03
CGA:   9    -0.999278701760E+03   -0.48072E+02   -0.50931E+02  1320   0.125E+04-0.172E+03
CGA:  10    -0.102827357630E+04   -0.28995E+02   -0.63130E+02  1320   0.122E+04-0.441E+03
CGA:  11    -0.106983847336E+04   -0.41565E+02   -0.24240E+02  1320   0.374E+03 0.389E+03
CGA:  12    -0.107191831856E+04   -0.20798E+01   -0.28201E+02  1320   0.743E+03-0.189E+03
CGA:  13    -0.107857317595E+04   -0.66549E+01   -0.30955E+02  1320   0.156E+04-0.952E+03
CGA:  14    -0.105174795665E+04    0.26825E+02   -0.67724E+02  1320   0.196E+04-0.118E+04
CGA:  15    -0.982545622613E+03    0.69202E+02   -0.93171E+02  1320   0.354E+04-0.217E+04
CGA:  16    -0.956258607388E+03    0.26287E+02   -0.16249E+03  1320   0.435E+04-0.380E+04
CGA:  17    -0.916901179534E+03    0.39357E+02   -0.22996E+03  1320   0.441E+04-0.366E+04
CGA:  18    -0.968418754173E+03   -0.51518E+02   -0.20480E+03  1320   0.390E+04-0.455E+04
CGA:  19    -0.954920317951E+03    0.13498E+02   -0.18878E+03  1320   0.319E+04-0.311E+04
CGA:  20    -0.102796717314E+04   -0.73047E+02   -0.12341E+03  1320   0.309E+04-0.424E+04
CGA:  21    -0.100441919892E+04    0.23548E+02   -0.13346E+03  1320   0.407E+04-0.367E+04
CGA:  22    -0.101537614134E+04   -0.10957E+02   -0.16059E+03  1320   0.335E+04-0.349E+04
CGA:  23    -0.101108025998E+04    0.42959E+01   -0.13850E+03  1320   0.426E+04-0.411E+04
CGA:  24    -0.103598590637E+04   -0.24906E+02   -0.16056E+03  1320   0.314E+04-0.358E+04
CGA:  25    -0.104726169080E+04   -0.11276E+02   -0.12021E+03  1320   0.291E+04-0.316E+04
CGA:  26    -0.108860742918E+04   -0.41346E+02   -0.91235E+02  1320   0.154E+04-0.232E+04
CGA:  27    -0.110061142047E+04   -0.12004E+02   -0.44466E+02  1320   0.993E+03-0.119E+04
CGA:  28    -0.111623388500E+04   -0.15622E+02   -0.23057E+02  1320   0.372E+03-0.702E+03
CGA:  29    -0.111923282665E+04   -0.29989E+01   -0.91078E+01  1320   0.188E+03-0.246E+03
CGA:  30    -0.112200687875E+04   -0.27741E+01   -0.34648E+01  1320   0.202E+02-0.480E+02
CGA:  31    -0.112255870163E+04   -0.55182E+00   -0.61629E+00  1320   0.122E+02-0.964E+00
CGA:  32    -0.112339605343E+04   -0.83735E+00   -0.84310E+00  1320   0.197E+02 0.198E+00
CGA:  33    -0.112488265299E+04   -0.14866E+01   -0.15280E+01  1320   0.124E+02 0.233E+01
CGA:  34    -0.112540110538E+04   -0.51845E+00   -0.47701E+00  1320   0.460E+01 0.694E+00
CGA:  35    -0.112577560039E+04   -0.37450E+00   -0.37566E+00  1320   0.425E+01 0.148E+00
CGA:  36    -0.112598714537E+04   -0.21154E+00   -0.20347E+00  1320   0.297E+01 0.258E-01
CGA:  37    -0.112627364376E+04   -0.28650E+00   -0.27828E+00  1320   0.186E+01 0.364E+00
CGA:  38    -0.112636472987E+04   -0.91086E-01   -0.93192E-01  1320   0.151E+01-0.307E-01
CGA:  39    -0.112649776643E+04   -0.13304E+00   -0.13207E+00  1320   0.106E+01 0.525E-01
CGA:  40    -0.112657445802E+04   -0.76692E-01   -0.77016E-01  1320   0.108E+01 0.125E-01
CGA:  41    -0.112664586493E+04   -0.71407E-01   -0.72325E-01  1320   0.789E+00 0.251E-01
CGA:  42    -0.112671524511E+04   -0.69380E-01   -0.68588E-01  1320   0.458E+00 0.626E-01
CGA:  43    -0.112676037376E+04   -0.45129E-01   -0.45125E-01  1320   0.460E+00-0.513E-03
CGA:  44    -0.112678981596E+04   -0.29442E-01   -0.30164E-01  1320   0.298E+00 0.164E-01
CGA:  45    -0.112682129057E+04   -0.31475E-01   -0.31839E-01  1320   0.235E+00-0.113E-01
CGA:  46    -0.112684488641E+04   -0.23596E-01   -0.23309E-01  1320   0.131E+00 0.805E-02
CGA:  47    -0.112685706773E+04   -0.12181E-01   -0.12230E-01  1320   0.111E+00-0.338E-02
CGA:  48    -0.112686758017E+04   -0.10512E-01   -0.10425E-01  1320   0.827E-01 0.346E-02
CGA:  49    -0.112687701372E+04   -0.94335E-02   -0.94924E-02  1320   0.770E-01-0.159E-02
CGA:  50    -0.112688366783E+04   -0.66541E-02   -0.66483E-02  1320   0.460E-01 0.698E-03
CGA:  51    -0.112688879174E+04   -0.51239E-02   -0.51488E-02  1320   0.364E-01-0.631E-03
CGA:  52    -0.112689208183E+04   -0.32901E-02   -0.32881E-02  1320   0.300E-01 0.301E-03
CGA:  53    -0.112689454695E+04   -0.24651E-02   -0.24642E-02  1320   0.219E-01 0.566E-04
CGA:  54    -0.112689671341E+04   -0.21665E-02   -0.21626E-02  1320   0.124E-01 0.304E-03
CGA:  55    -0.112689782534E+04   -0.11119E-02   -0.11123E-02  1320   0.959E-02 0.193E-04
CGA:  56    -0.112689873118E+04   -0.90584E-03   -0.90437E-03  1320   0.887E-02 0.161E-03
CGA:  57    -0.112689956709E+04   -0.83591E-03   -0.83596E-03  1320   0.706E-02 0.422E-04
CGA:  58    -0.112690012996E+04   -0.56287E-03   -0.56296E-03  1320   0.442E-02 0.364E-04
CGA:  59    -0.112690054759E+04   -0.41763E-03   -0.41783E-03  1320   0.391E-02-0.992E-05
SDA:  60    -0.112690101436E+04   -0.46677E-03   -0.46708E-03  1320   0.397E-02-0.121E-04
CGA:  61    -0.112690118629E+04   -0.17193E-03   -0.17076E-03  1320   0.154E-02 0.209E-05
CGA:  62    -0.112690133513E+04   -0.14884E-03   -0.14910E-03  1320   0.197E-02-0.244E-04
CGA:  63    -0.112690170059E+04   -0.36545E-03   -0.37591E-03  1320   0.398E-02-0.993E-04
CGA:  64    -0.112690202085E+04   -0.32026E-03   -0.31960E-03  1320   0.136E-02-0.819E-04
CGA:  65    -0.112690216838E+04   -0.14753E-03   -0.14819E-03  1320   0.954E-03-0.325E-04
CGA:  66    -0.112690227519E+04   -0.10682E-03   -0.10713E-03  1320   0.957E-03-0.138E-04
CGA:  67    -0.112690238229E+04   -0.10709E-03   -0.10717E-03  1320   0.105E-02-0.308E-05
CGA:  68    -0.112690246375E+04   -0.81470E-04   -0.81612E-04  1320   0.962E-03 0.755E-05
CGA:  69    -0.112690255428E+04   -0.90527E-04   -0.90531E-04  1320   0.739E-03 0.161E-04
CGA:  70    -0.112690263225E+04   -0.77963E-04   -0.77712E-04  1320   0.616E-03 0.265E-04
CGA:  71    -0.112690273206E+04   -0.99816E-04   -0.96949E-04  1320   0.709E-03 0.491E-04
CGA:  72    -0.112690281808E+04   -0.86021E-04   -0.85408E-04  1320   0.536E-03 0.437E-04
CGA:  73    -0.112690286897E+04   -0.50889E-04   -0.51078E-04  1320   0.431E-03 0.231E-04
CGA:  74    -0.112690291207E+04   -0.43101E-04   -0.43125E-04  1320   0.570E-03 0.137E-04
CGA:  75    -0.112690296812E+04   -0.56050E-04   -0.56063E-04  1320   0.432E-03 0.752E-05
CGA:  76    -0.112690300821E+04   -0.40090E-04   -0.40083E-04  1320   0.319E-03-0.180E-05
CGA:  77    -0.112690304435E+04   -0.36134E-04   -0.36352E-04  1320   0.176E-03-0.125E-04
CGA:  78    -0.112690306439E+04   -0.20047E-04   -0.20358E-04  1320   0.201E-03-0.145E-04
CGA:  79    -0.112690307647E+04   -0.12072E-04   -0.11681E-04  1320   0.143E-03-0.116E-04
CGA:  80    -0.112690309205E+04   -0.15582E-04   -0.15956E-04  1320   0.108E-03-0.177E-04
CGA:  81    -0.112690310093E+04   -0.88850E-05   -0.88470E-05  1320   0.648E-04-0.809E-05
   1 F= -.11269031E+04 E0= -.11268748E+04  d E =-.112690E+04  mag=    19.9995
       N       E                     dE             d eps       ncg     rms          ort
SDA:   1    -0.112691560576E+04   -0.12514E-01    0.00000E+00  1320   0.487E-01 0.000E+00
CGA:   2    -0.112691758758E+04   -0.19818E-02   -0.20147E-02  1320   0.154E-01-0.515E-03
CGA:   3    -0.112691889847E+04   -0.13109E-02   -0.13105E-02  1320   0.130E-01-0.265E-04
CGA:   4    -0.112691975932E+04   -0.86086E-03   -0.85977E-03  1320   0.561E-02-0.268E-04
CGA:   5    -0.112692038065E+04   -0.62133E-03   -0.62177E-03  1320   0.413E-02-0.258E-04
CGA:   6    -0.112692069564E+04   -0.31498E-03   -0.31477E-03  1320   0.907E-03-0.112E-04
CGA:   7    -0.112692076278E+04   -0.67142E-04   -0.67102E-04  1320   0.556E-03-0.183E-05
CGA:   8    -0.112692079770E+04   -0.34923E-04   -0.34869E-04  1320   0.318E-03-0.189E-05
CGA:   9    -0.112692082026E+04   -0.22557E-04   -0.22495E-04  1320   0.103E-03-0.287E-05
CGA:  10    -0.112692082947E+04   -0.92058E-05   -0.92046E-05  1320   0.605E-04-0.310E-05
   2 F= -.11269208E+04 E0= -.11268926E+04  d E =-.177285E-01  mag=    19.9995
       N       E                     dE             d eps       ncg     rms          ort
SDA:   1    -0.111813286674E+04    0.87880E+01    0.00000E+00  1320   0.345E+02 0.000E+00
CGA:   2    -0.112346902280E+04   -0.53362E+01   -0.53472E+01  1320   0.160E+02-0.160E+00
CGA:   3    -0.112504560050E+04   -0.15766E+01   -0.15782E+01  1320   0.249E+02-0.175E+00
CGA:   4    -0.112667060316E+04   -0.16250E+01   -0.16444E+01  1320   0.730E+01 0.191E+00
CGA:   5    -0.112719581654E+04   -0.52521E+00   -0.51479E+00  1320   0.180E+01-0.439E-01
CGA:   6    -0.112739369743E+04   -0.19788E+00   -0.19736E+00  1320   0.126E+01 0.189E-01
CGA:   7    -0.112747742468E+04   -0.83727E-01   -0.83488E-01  1320   0.370E+00-0.576E-03
CGA:   8    -0.112750376644E+04   -0.26342E-01   -0.26460E-01  1320   0.248E+00 0.136E-02
CGA:   9    -0.112752136082E+04   -0.17594E-01   -0.17606E-01  1320   0.131E+00 0.948E-04
CGA:  10    -0.112753199948E+04   -0.10639E-01   -0.10634E-01  1320   0.592E-01-0.247E-03
CGA:  11    -0.112753772560E+04   -0.57261E-02   -0.57238E-02  1320   0.388E-01 0.178E-03
CGA:  12    -0.112754191164E+04   -0.41860E-02   -0.41849E-02  1320   0.327E-01 0.432E-04
CGA:  13    -0.112754395566E+04   -0.20440E-02   -0.20420E-02  1320   0.197E-01 0.240E-05
CGA:  14    -0.112754566838E+04   -0.17127E-02   -0.17128E-02  1320   0.106E-01 0.342E-04
CGA:  15    -0.112754702984E+04   -0.13615E-02   -0.13610E-02  1320   0.102E-01 0.136E-04
CGA:  16    -0.112754792946E+04   -0.89962E-03   -0.89974E-03  1320   0.595E-02 0.360E-04
CGA:  17    -0.112754839213E+04   -0.46267E-03   -0.46293E-03  1320   0.510E-02 0.235E-04
CGA:  18    -0.112754880793E+04   -0.41579E-03   -0.41606E-03  1320   0.312E-02 0.285E-04
CGA:  19    -0.112754910205E+04   -0.29412E-03   -0.29406E-03  1320   0.137E-02 0.149E-04
CGA:  20    -0.112754926771E+04   -0.16567E-03   -0.16565E-03  1320   0.137E-02 0.308E-06
CGA:  21    -0.112754935985E+04   -0.92132E-04   -0.92046E-04  1320   0.966E-03-0.314E-05
CGA:  22    -0.112754945096E+04   -0.91115E-04   -0.91148E-04  1320   0.603E-03-0.701E-05
CGA:  23    -0.112754952046E+04   -0.69497E-04   -0.69647E-04  1320   0.561E-03-0.582E-05
CGA:  24    -0.112754956596E+04   -0.45506E-04   -0.45497E-04  1320   0.349E-03-0.124E-05
CGA:  25    -0.112754960112E+04   -0.35158E-04   -0.35136E-04  1320   0.313E-03 0.227E-05
CGA:  26    -0.112754962149E+04   -0.20369E-04   -0.20412E-04  1320   0.187E-03 0.168E-05
CGA:  27    -0.112754964269E+04   -0.21197E-04   -0.21169E-04  1320   0.955E-04 0.127E-05
CGA:  28    -0.112754965400E+04   -0.11307E-04   -0.11339E-04  1320   0.923E-04-0.122E-05
CGA:  29    -0.112754966033E+04   -0.63346E-05   -0.62931E-05  1320   0.681E-04-0.175E-05
   3 F= -.11275497E+04 E0= -.11275231E+04  d E =-.628831E+00  mag=    19.9992
       N       E                     dE             d eps       ncg     rms          ort
SDA:   1    -0.110632286814E+04    0.21227E+02    0.00000E+00  1320   0.719E+02 0.000E+00
CGA:   2    -0.111821991287E+04   -0.11897E+02   -0.11799E+02  1320   0.503E+02 0.127E+01
CGA:   3    -0.112168786613E+04   -0.34680E+01   -0.31261E+01  1320   0.401E+02 0.806E+00
CGA:   4    -0.112554221093E+04   -0.38543E+01   -0.38564E+01  1320   0.249E+02-0.756E+00
CGA:   5    -0.112707011872E+04   -0.15279E+01   -0.15424E+01  1320   0.664E+01 0.277E-01
CGA:   6    -0.112747449633E+04   -0.40438E+00   -0.39057E+00  1320   0.382E+01 0.418E-01
CGA:   7    -0.112774792720E+04   -0.27343E+00   -0.27188E+00  1320   0.262E+01-0.164E-01
CGA:   8    -0.112790407733E+04   -0.15615E+00   -0.15919E+00  1320   0.589E+00 0.658E-02
CGA:   9    -0.112795356905E+04   -0.49492E-01   -0.49491E-01  1320   0.347E+00-0.987E-04
CGA:  10    -0.112797892021E+04   -0.25351E-01   -0.25420E-01  1320   0.323E+00 0.144E-02
CGA:  11    -0.112800181031E+04   -0.22890E-01   -0.22920E-01  1320   0.133E+00 0.503E-03
CGA:  12    -0.112801288703E+04   -0.11077E-01   -0.11078E-01  1320   0.691E-01 0.211E-03
CGA:  13    -0.112802092570E+04   -0.80387E-02   -0.80147E-02  1320   0.693E-01 0.594E-03
CGA:  14    -0.112802579110E+04   -0.48654E-02   -0.48702E-02  1320   0.455E-01 0.674E-04
CGA:  15    -0.112802884429E+04   -0.30532E-02   -0.30534E-02  1320   0.236E-01 0.737E-05
CGA:  16    -0.112803152989E+04   -0.26856E-02   -0.26804E-02  1320   0.204E-01 0.153E-03
CGA:  17    -0.112803376201E+04   -0.22321E-02   -0.22297E-02  1320   0.126E-01 0.907E-04
CGA:  18    -0.112803471605E+04   -0.95404E-03   -0.95474E-03  1320   0.102E-01 0.256E-04
CGA:  19    -0.112803546733E+04   -0.75129E-03   -0.75151E-03  1320   0.631E-02 0.119E-04
CGA:  20    -0.112803608709E+04   -0.61976E-03   -0.61973E-03  1320   0.337E-02 0.247E-05
CGA:  21    -0.112803642623E+04   -0.33914E-03   -0.33917E-03  1320   0.243E-02-0.257E-05
CGA:  22    -0.112803673563E+04   -0.30940E-03   -0.30955E-03  1320   0.200E-02-0.304E-05
CGA:  23    -0.112803686827E+04   -0.13264E-03   -0.13255E-03  1320   0.167E-02-0.445E-05
CGA:  24    -0.112803703412E+04   -0.16585E-03   -0.16594E-03  1320   0.105E-02-0.886E-05
CGA:  25    -0.112803715717E+04   -0.12304E-03   -0.12330E-03  1320   0.759E-03-0.877E-05
CGA:  26    -0.112803722213E+04   -0.64962E-04   -0.64950E-04  1320   0.522E-03-0.270E-05
CGA:  27    -0.112803727370E+04   -0.51571E-04   -0.51567E-04  1320   0.518E-03 0.598E-06
CGA:  28    -0.112803730619E+04   -0.32485E-04   -0.32492E-04  1320   0.249E-03 0.353E-06
CGA:  29    -0.112803733192E+04   -0.25731E-04   -0.25743E-04  1320   0.135E-03-0.899E-06
CGA:  30    -0.112803735281E+04   -0.20888E-04   -0.21143E-04  1320   0.120E-03-0.386E-05
CGA:  31    -0.112803736216E+04   -0.93568E-05   -0.93360E-05  1320   0.877E-04-0.154E-05
   4 F= -.11280374E+04 E0= -.11280120E+04  d E =-.487702E+00  mag=    19.9988
       N       E                     dE             d eps       ncg     rms          ort
SDA:   1    -0.111432539366E+04    0.13712E+02    0.00000E+00  1320   0.488E+02 0.000E+00
CGA:   2    -0.112178685001E+04   -0.74615E+01   -0.74656E+01  1320   0.324E+02-0.873E-01
CGA:   3    -0.112472232993E+04   -0.29355E+01   -0.29381E+01  1320   0.213E+02 0.310E+00
CGA:   4    -0.112675640705E+04   -0.20341E+01   -0.20341E+01  1320   0.175E+02 0.321E+00
CGA:   5    -0.112765068443E+04   -0.89428E+00   -0.91383E+00  1320   0.376E+01-0.918E-01
CGA:   6    -0.112796966036E+04   -0.31898E+00   -0.31810E+00  1320   0.165E+01-0.471E-01
CGA:   7    -0.112814329711E+04   -0.17364E+00   -0.17323E+00  1320   0.741E+00 0.184E-01
CGA:   8    -0.112819379843E+04   -0.50501E-01   -0.50302E-01  1320   0.256E+00-0.813E-03
CGA:   9    -0.112821566334E+04   -0.21865E-01   -0.21872E-01  1320   0.197E+00 0.484E-03
CGA:  10    -0.112823024205E+04   -0.14579E-01   -0.14579E-01  1320   0.119E+00 0.229E-04
CGA:  11    -0.112823970711E+04   -0.94651E-02   -0.94588E-02  1320   0.468E-01-0.212E-03
CGA:  12    -0.112824528010E+04   -0.55730E-02   -0.55740E-02  1320   0.378E-01-0.308E-04
CGA:  13    -0.112824910187E+04   -0.38218E-02   -0.38215E-02  1320   0.259E-01 0.108E-04
CGA:  14    -0.112825084250E+04   -0.17406E-02   -0.17409E-02  1320   0.161E-01 0.101E-04
CGA:  15    -0.112825235589E+04   -0.15134E-02   -0.15131E-02  1320   0.135E-01 0.464E-04
CGA:  16    -0.112825390225E+04   -0.15464E-02   -0.15461E-02  1320   0.722E-02 0.162E-04
CGA:  17    -0.112825470712E+04   -0.80487E-03   -0.80447E-03  1320   0.494E-02 0.182E-04
CGA:  18    -0.112825509431E+04   -0.38719E-03   -0.38715E-03  1320   0.462E-02 0.342E-05
CGA:  19    -0.112825550807E+04   -0.41377E-03   -0.41377E-03  1320   0.196E-02 0.124E-05
CGA:  20    -0.112825569666E+04   -0.18859E-03   -0.18859E-03  1320   0.159E-02-0.143E-05
CGA:  21    -0.112825586374E+04   -0.16708E-03   -0.16716E-03  1320   0.108E-02-0.567E-05
CGA:  22    -0.112825598658E+04   -0.12284E-03   -0.12294E-03  1320   0.121E-02-0.461E-05
CGA:  23    -0.112825606505E+04   -0.78471E-04   -0.78406E-04  1320   0.581E-03-0.300E-05
CGA:  24    -0.112825613542E+04   -0.70363E-04   -0.70413E-04  1320   0.509E-03-0.172E-05
CGA:  25    -0.112825619426E+04   -0.58846E-04   -0.58945E-04  1320   0.315E-03-0.451E-05
CGA:  26    -0.112825622243E+04   -0.28168E-04   -0.28155E-04  1320   0.276E-03-0.233E-05
CGA:  27    -0.112825624363E+04   -0.21196E-04   -0.21158E-04  1320   0.194E-03-0.224E-05
CGA:  28    -0.112825626473E+04   -0.21101E-04   -0.21126E-04  1320   0.109E-03-0.162E-05
CGA:  29    -0.112825627554E+04   -0.10810E-04   -0.10809E-04  1320   0.880E-04 0.124E-06
CGA:  30    -0.112825628511E+04   -0.95711E-05   -0.95540E-05  1320   0.823E-04 0.128E-05
   5 F= -.11282563E+04 E0= -.11282304E+04  d E =-.218923E+00  mag=    19.9987
       N       E                     dE             d eps       ncg     rms          ort
SDA:   1    -0.111041622849E+04    0.17840E+02    0.00000E+00  1320   0.650E+02 0.000E+00
CGA:   2    -0.112034883398E+04   -0.99326E+01   -0.99360E+01  1320   0.387E+02-0.321E-01
CGA:   3    -0.112379892315E+04   -0.34501E+01   -0.34534E+01  1320   0.280E+02 0.145E+00
CGA:   4    -0.112651444648E+04   -0.27155E+01   -0.27144E+01  1320   0.222E+02-0.694E+00
CGA:   5    -0.112759637153E+04   -0.10819E+01   -0.11085E+01  1320   0.401E+01-0.446E-01
CGA:   6    -0.112801092137E+04   -0.41455E+00   -0.41481E+00  1320   0.224E+01-0.175E-01
CGA:   7    -0.112822868461E+04   -0.21776E+00   -0.21779E+00  1320   0.779E+00-0.720E-02
CGA:   8    -0.112828715639E+04   -0.58472E-01   -0.58760E-01  1320   0.338E+00 0.360E-02
CGA:   9    -0.112831230707E+04   -0.25151E-01   -0.25146E-01  1320   0.248E+00-0.496E-04
CGA:  10    -0.112833339928E+04   -0.21092E-01   -0.21076E-01  1320   0.113E+00-0.788E-03
CGA:  11    -0.112834365981E+04   -0.10261E-01   -0.10261E-01  1320   0.614E-01 0.137E-03
CGA:  12    -0.112835059874E+04   -0.69389E-02   -0.69405E-02  1320   0.504E-01-0.571E-04
CGA:  13    -0.112835542840E+04   -0.48297E-02   -0.48292E-02  1320   0.279E-01 0.114E-03
CGA:  14    -0.112835778909E+04   -0.23607E-02   -0.23611E-02  1320   0.225E-01 0.298E-04
CGA:  15    -0.112835970707E+04   -0.19180E-02   -0.19180E-02  1320   0.180E-01 0.194E-04
CGA:  16    -0.112836184804E+04   -0.21410E-02   -0.21393E-02  1320   0.895E-02 0.594E-04
CGA:  17    -0.112836290905E+04   -0.10610E-02   -0.10603E-02  1320   0.541E-02 0.286E-04
CGA:  18    -0.112836350092E+04   -0.59187E-03   -0.59172E-03  1320   0.636E-02 0.121E-04
CGA:  19    -0.112836393696E+04   -0.43604E-03   -0.43620E-03  1320   0.259E-02 0.443E-05
CGA:  20    -0.112836422476E+04   -0.28780E-03   -0.28782E-03  1320   0.179E-02-0.159E-05
CGA:  21    -0.112836444519E+04   -0.22043E-03   -0.22065E-03  1320   0.159E-02-0.802E-05
CGA:  22    -0.112836460562E+04   -0.16043E-03   -0.16046E-03  1320   0.112E-02-0.622E-05
CGA:  23    -0.112836469588E+04   -0.90261E-04   -0.90207E-04  1320   0.829E-03-0.389E-05
CGA:  24    -0.112836477532E+04   -0.79440E-04   -0.79439E-04  1320   0.651E-03-0.306E-05
CGA:  25    -0.112836483860E+04   -0.63284E-04   -0.63289E-04  1320   0.367E-03-0.361E-05
CGA:  26    -0.112836487847E+04   -0.39872E-04   -0.39907E-04  1320   0.236E-03-0.271E-05
CGA:  27    -0.112836490466E+04   -0.26183E-04   -0.26213E-04  1320   0.214E-03-0.209E-05
CGA:  28    -0.112836492030E+04   -0.15644E-04   -0.15622E-04  1320   0.134E-03-0.882E-06
CGA:  29    -0.112836493334E+04   -0.13037E-04   -0.13038E-04  1320   0.930E-04-0.697E-06
CGA:  30    -0.112836494449E+04   -0.11148E-04   -0.11143E-04  1320   0.591E-04 0.201E-06
CGA:  31    -0.112836495260E+04   -0.81129E-05   -0.81213E-05  1320   0.669E-04-0.245E-06
   6 F= -.11283650E+04 E0= -.11283387E+04  d E =-.108667E+00  mag=    19.9968
       N       E                     dE             d eps       ncg     rms          ort
SDA:   1    -0.111496341146E+04    0.13402E+02    0.00000E+00  1320   0.525E+02 0.000E+00
CGA:   2    -0.112257414620E+04   -0.76107E+01   -0.76312E+01  1320   0.357E+02-0.368E+00
CGA:   3    -0.112455025045E+04   -0.19761E+01   -0.20873E+01  1320   0.218E+02-0.244E+00
CGA:   4    -0.112689083614E+04   -0.23406E+01   -0.23382E+01  1320   0.131E+02 0.144E+00
CGA:   5    -0.112783054415E+04   -0.93971E+00   -0.93399E+00  1320   0.316E+01-0.851E-02
CGA:   6    -0.112814538020E+04   -0.31484E+00   -0.31485E+00  1320   0.214E+01-0.366E-02
CGA:   7    -0.112830680064E+04   -0.16142E+00   -0.16124E+00  1320   0.888E+00-0.114E-02
CGA:   8    -0.112836482613E+04   -0.58025E-01   -0.58170E-01  1320   0.342E+00 0.149E-03
CGA:   9    -0.112839029965E+04   -0.25474E-01   -0.25595E-01  1320   0.186E+00 0.130E-02
CGA:  10    -0.112840975195E+04   -0.19452E-01   -0.19455E-01  1320   0.772E-01-0.159E-03
CGA:  11    -0.112841770287E+04   -0.79509E-02   -0.79519E-02  1320   0.632E-01-0.802E-04
CGA:  12    -0.112842270255E+04   -0.49997E-02   -0.49988E-02  1320   0.455E-01-0.159E-04
CGA:  13    -0.112842704469E+04   -0.43421E-02   -0.43423E-02  1320   0.277E-01-0.913E-04
CGA:  14    -0.112842961576E+04   -0.25711E-02   -0.25713E-02  1320   0.152E-01 0.563E-04
CGA:  15    -0.112843180578E+04   -0.21900E-02   -0.21886E-02  1320   0.170E-01 0.264E-04
CGA:  16    -0.112843314102E+04   -0.13352E-02   -0.13356E-02  1320   0.111E-01 0.175E-04
CGA:  17    -0.112843407572E+04   -0.93469E-03   -0.93486E-03  1320   0.631E-02 0.125E-04
CGA:  18    -0.112843477612E+04   -0.70041E-03   -0.70010E-03  1320   0.478E-02 0.189E-04
CGA:  19    -0.112843520945E+04   -0.43332E-03   -0.43339E-03  1320   0.241E-02 0.940E-05
CGA:  20    -0.112843545528E+04   -0.24583E-03   -0.24583E-03  1320   0.213E-02 0.189E-05
CGA:  21    -0.112843563836E+04   -0.18308E-03   -0.18309E-03  1320   0.156E-02 0.299E-06
CGA:  22    -0.112843578752E+04   -0.14915E-03   -0.14915E-03  1320   0.972E-03-0.125E-05
CGA:  23    -0.112843590047E+04   -0.11295E-03   -0.11307E-03  1320   0.657E-03-0.554E-05
CGA:  24    -0.112843597607E+04   -0.75606E-04   -0.75654E-04  1320   0.660E-03-0.273E-05
CGA:  25    -0.112843602369E+04   -0.47616E-04   -0.47563E-04  1320   0.357E-03-0.226E-05
CGA:  26    -0.112843606106E+04   -0.37372E-04   -0.37389E-04  1320   0.228E-03-0.197E-05
CGA:  27    -0.112843608580E+04   -0.24739E-04   -0.24763E-04  1320   0.169E-03-0.196E-05
CGA:  28    -0.112843610143E+04   -0.15631E-04   -0.15628E-04  1320   0.113E-03-0.612E-06
CGA:  29    -0.112843611119E+04   -0.97584E-05   -0.97504E-05  1320   0.883E-04-0.758E-06
   7 F= -.11284361E+04 E0= -.11284095E+04  d E =-.711586E-01  mag=    19.9932
       N       E                     dE             d eps       ncg     rms          ort
SDA:   1    -0.112628421366E+04    0.21519E+01    0.00000E+00  1320   0.738E+01 0.000E+00
CGA:   2    -0.112758089024E+04   -0.12967E+01   -0.12955E+01  1320   0.389E+01 0.144E-01
CGA:   3    -0.112803286554E+04   -0.45198E+00   -0.45357E+00  1320   0.373E+01-0.641E-01
CGA:   4    -0.112832236643E+04   -0.28950E+00   -0.28952E+00  1320   0.162E+01 0.607E-03
CGA:   5    -0.112841880951E+04   -0.96443E-01   -0.96474E-01  1320   0.522E+00 0.721E-03
CGA:   6    -0.112846214639E+04   -0.43337E-01   -0.43242E-01  1320   0.308E+00-0.183E-02
CGA:   7    -0.112848892384E+04   -0.26777E-01   -0.26783E-01  1320   0.880E-01 0.265E-03
CGA:   8    -0.112849594307E+04   -0.70192E-02   -0.70221E-02  1320   0.349E-01 0.718E-04
CGA:   9    -0.112849996762E+04   -0.40245E-02   -0.40255E-02  1320   0.266E-01-0.209E-04
CGA:  10    -0.112850177044E+04   -0.18028E-02   -0.18043E-02  1320   0.150E-01 0.204E-04
CGA:  11    -0.112850303378E+04   -0.12633E-02   -0.12629E-02  1320   0.782E-02-0.991E-05
CGA:  12    -0.112850401123E+04   -0.97745E-03   -0.97698E-03  1320   0.549E-02 0.118E-04
CGA:  13    -0.112850457491E+04   -0.56368E-03   -0.56375E-03  1320   0.288E-02-0.937E-05
CGA:  14    -0.112850489265E+04   -0.31775E-03   -0.31783E-03  1320   0.326E-02-0.730E-05
CGA:  15    -0.112850514416E+04   -0.25150E-03   -0.25130E-03  1320   0.202E-02-0.102E-04
CGA:  16    -0.112850536388E+04   -0.21972E-03   -0.21983E-03  1320   0.113E-02-0.853E-05
CGA:  17    -0.112850547153E+04   -0.10765E-03   -0.10764E-03  1320   0.772E-03-0.493E-05
CGA:  18    -0.112850555901E+04   -0.87482E-04   -0.87520E-04  1320   0.518E-03-0.226E-05
CGA:  19    -0.112850560221E+04   -0.43192E-04   -0.43193E-04  1320   0.350E-03-0.165E-06
CGA:  20    -0.112850563261E+04   -0.30401E-04   -0.30410E-04  1320   0.258E-03 0.864E-06
CGA:  21    -0.112850565735E+04   -0.24741E-04   -0.24742E-04  1320   0.176E-03 0.665E-06
CGA:  22    -0.112850567996E+04   -0.22617E-04   -0.22582E-04  1320   0.106E-03 0.110E-05
CGA:  23    -0.112850569152E+04   -0.11553E-04   -0.11549E-04  1320   0.918E-04 0.431E-06
CGA:  24    -0.112850570118E+04   -0.96577E-05   -0.96564E-05  1320   0.891E-04 0.159E-06
   8 F= -.11285057E+04 E0= -.11284793E+04  d E =-.695900E-01  mag=    19.9933
       N       E                     dE             d eps       ncg     rms          ort
SDA:   1    -0.112619862821E+04    0.23071E+01    0.00000E+00  1320   0.793E+01 0.000E+00
CGA:   2    -0.112766182490E+04   -0.14632E+01   -0.14634E+01  1320   0.415E+01-0.182E-02
CGA:   3    -0.112801983724E+04   -0.35801E+00   -0.35885E+00  1320   0.391E+01 0.176E-01
CGA:   4    -0.112834495598E+04   -0.32512E+00   -0.32394E+00  1320   0.152E+01-0.162E-01
CGA:   5    -0.112844225841E+04   -0.97302E-01   -0.96695E-01  1320   0.547E+00 0.138E-02
CGA:   6    -0.112850058984E+04   -0.58331E-01   -0.58342E-01  1320   0.318E+00-0.682E-03
CGA:   7    -0.112852627469E+04   -0.25685E-01   -0.25671E-01  1320   0.907E-01-0.167E-03
CGA:   8    -0.112853307195E+04   -0.67973E-02   -0.68076E-02  1320   0.466E-01 0.884E-04
CGA:   9    -0.112853708135E+04   -0.40094E-02   -0.40111E-02  1320   0.345E-01 0.586E-04
CGA:  10    -0.112853966765E+04   -0.25863E-02   -0.25859E-02  1320   0.131E-01-0.487E-05
CGA:  11    -0.112854117179E+04   -0.15041E-02   -0.15036E-02  1320   0.958E-02 0.187E-04
CGA:  12    -0.112854241978E+04   -0.12480E-02   -0.12480E-02  1320   0.741E-02 0.129E-05
CGA:  13    -0.112854300067E+04   -0.58088E-03   -0.58115E-03  1320   0.503E-02 0.402E-05
CGA:  14    -0.112854347548E+04   -0.47481E-03   -0.47481E-03  1320   0.443E-02-0.219E-05
CGA:  15    -0.112854395855E+04   -0.48308E-03   -0.48317E-03  1320   0.275E-02-0.630E-05
CGA:  16    -0.112854425753E+04   -0.29898E-03   -0.29900E-03  1320   0.185E-02-0.184E-05
CGA:  17    -0.112854443162E+04   -0.17408E-03   -0.17409E-03  1320   0.119E-02 0.187E-05
CGA:  18    -0.112854455083E+04   -0.11921E-03   -0.11921E-03  1320   0.984E-03 0.160E-05
CGA:  19    -0.112854462105E+04   -0.70221E-04   -0.70282E-04  1320   0.456E-03 0.192E-05
CGA:  20    -0.112854467474E+04   -0.53686E-04   -0.53658E-04  1320   0.385E-03 0.140E-05
CGA:  21    -0.112854471817E+04   -0.43431E-04   -0.43426E-04  1320   0.239E-03 0.360E-06
CGA:  22    -0.112854474524E+04   -0.27074E-04   -0.27087E-04  1320   0.210E-03-0.842E-06
CGA:  23    -0.112854476091E+04   -0.15668E-04   -0.15663E-04  1320   0.144E-03-0.192E-06
CGA:  24    -0.112854477742E+04   -0.16509E-04   -0.16516E-04  1320   0.945E-04-0.355E-06
CGA:  25    -0.112854478654E+04   -0.91183E-05   -0.91190E-05  1320   0.565E-04 0.174E-06
   9 F= -.11285448E+04 E0= -.11285189E+04  d E =-.390854E-01  mag=    19.9917
       N       E                     dE             d eps       ncg     rms          ort
SDA:   1    -0.111736796218E+04    0.11177E+02    0.00000E+00  1320   0.392E+02 0.000E+00
CGA:   2    -0.112454731240E+04   -0.71794E+01   -0.71858E+01  1320   0.181E+02-0.632E-01
CGA:   3    -0.112627951507E+04   -0.17322E+01   -0.17387E+01  1320   0.182E+02 0.351E+00
CGA:   4    -0.112769433475E+04   -0.14148E+01   -0.13998E+01  1320   0.611E+01-0.339E-01
CGA:   5    -0.112813183167E+04   -0.43750E+00   -0.43195E+00  1320   0.241E+01 0.207E-02
CGA:   6    -0.112841720403E+04   -0.28537E+00   -0.28515E+00  1320   0.140E+01 0.831E-02
CGA:   7    -0.112851049242E+04   -0.93288E-01   -0.92609E-01  1320   0.421E+00 0.718E-03
CGA:   8    -0.112854410906E+04   -0.33617E-01   -0.33619E-01  1320   0.242E+00 0.391E-04
CGA:   9    -0.112856397068E+04   -0.19862E-01   -0.19880E-01  1320   0.133E+00 0.325E-03
CGA:  10    -0.112857539340E+04   -0.11423E-01   -0.11413E-01  1320   0.623E-01-0.270E-03
CGA:  11    -0.112858273806E+04   -0.73447E-02   -0.73380E-02  1320   0.511E-01 0.229E-03
CGA:  12    -0.112858804312E+04   -0.53051E-02   -0.53056E-02  1320   0.419E-01-0.450E-04
CGA:  13    -0.112859111591E+04   -0.30728E-02   -0.30745E-02  1320   0.237E-01 0.213E-04
CGA:  14    -0.112859410321E+04   -0.29873E-02   -0.29861E-02  1320   0.189E-01 0.298E-04
CGA:  15    -0.112859652579E+04   -0.24226E-02   -0.24231E-02  1320   0.148E-01-0.142E-04
CGA:  16    -0.112859769736E+04   -0.11716E-02   -0.11719E-02  1320   0.994E-02 0.635E-06
CGA:  17    -0.112859867281E+04   -0.97545E-03   -0.97547E-03  1320   0.645E-02 0.121E-04
CGA:  18    -0.112859923949E+04   -0.56667E-03   -0.56675E-03  1320   0.352E-02 0.753E-05
CGA:  19    -0.112859961848E+04   -0.37899E-03   -0.37891E-03  1320   0.236E-02 0.823E-05
CGA:  20    -0.112859986052E+04   -0.24204E-03   -0.24204E-03  1320   0.201E-02 0.835E-06
CGA:  21    -0.112860003391E+04   -0.17339E-03   -0.17339E-03  1320   0.125E-02 0.535E-06
CGA:  22    -0.112860016300E+04   -0.12909E-03   -0.12910E-03  1320   0.959E-03-0.251E-05
CGA:  23    -0.112860025970E+04   -0.96694E-04   -0.96701E-04  1320   0.582E-03-0.285E-05
CGA:  24    -0.112860032499E+04   -0.65291E-04   -0.65308E-04  1320   0.460E-03-0.135E-05
CGA:  25    -0.112860036365E+04   -0.38657E-04   -0.38669E-04  1320   0.329E-03 0.739E-06
CGA:  26    -0.112860039408E+04   -0.30437E-04   -0.30437E-04  1320   0.169E-03 0.469E-07
CGA:  27    -0.112860041378E+04   -0.19698E-04   -0.19713E-04  1320   0.130E-03-0.887E-06
CGA:  28    -0.112860042704E+04   -0.13256E-04   -0.13259E-04  1320   0.989E-04-0.947E-06
CGA:  29    -0.112860043511E+04   -0.80750E-05   -0.80737E-05  1320   0.675E-04-0.101E-06
  10 F= -.11286004E+04 E0= -.11285755E+04  d E =-.556486E-01  mag=    19.9882
       N       E                     dE             d eps       ncg     rms          ort
SDA:   1    -0.110720356024E+04    0.21397E+02    0.00000E+00  1320   0.698E+02 0.000E+00
CGA:   2    -0.112112095465E+04   -0.13917E+02   -0.13923E+02  1320   0.339E+02-0.259E-01
CGA:   3    -0.112470719315E+04   -0.35862E+01   -0.35829E+01  1320   0.289E+02 0.117E+01
CGA:   4    -0.112696889988E+04   -0.22617E+01   -0.21895E+01  1320   0.122E+02 0.895E-01
CGA:   5    -0.112777886031E+04   -0.80996E+00   -0.81522E+00  1320   0.435E+01 0.106E-01
CGA:   6    -0.112831620426E+04   -0.53734E+00   -0.53799E+00  1320   0.196E+01-0.196E-01
CGA:   7    -0.112849004628E+04   -0.17384E+00   -0.17403E+00  1320   0.478E+00 0.560E-02
CGA:   8    -0.112854470423E+04   -0.54658E-01   -0.54625E-01  1320   0.338E+00 0.156E-02
CGA:   9    -0.112857216328E+04   -0.27459E-01   -0.27463E-01  1320   0.205E+00 0.640E-04
CGA:  10    -0.112858722117E+04   -0.15058E-01   -0.15062E-01  1320   0.119E+00 0.712E-04
CGA:  11    -0.112860040118E+04   -0.13180E-01   -0.13179E-01  1320   0.791E-01 0.110E-03
CGA:  12    -0.112861032268E+04   -0.99215E-02   -0.99149E-02  1320   0.510E-01 0.201E-03
CGA:  13    -0.112861617229E+04   -0.58496E-02   -0.58481E-02  1320   0.368E-01 0.743E-04
CGA:  14    -0.112862133776E+04   -0.51655E-02   -0.51647E-02  1320   0.371E-01 0.869E-05
CGA:  15    -0.112862461875E+04   -0.32810E-02   -0.32813E-02  1320   0.189E-01-0.546E-05
CGA:  16    -0.112862643814E+04   -0.18194E-02   -0.18194E-02  1320   0.162E-01-0.740E-06
CGA:  17    -0.112862782326E+04   -0.13851E-02   -0.13861E-02  1320   0.933E-02 0.241E-04
CGA:  18    -0.112862867615E+04   -0.85289E-03   -0.85291E-03  1320   0.445E-02 0.538E-05
CGA:  19    -0.112862931543E+04   -0.63928E-03   -0.63925E-03  1320   0.326E-02 0.731E-06
CGA:  20    -0.112862977165E+04   -0.45622E-03   -0.45637E-03  1320   0.200E-02-0.431E-05
CGA:  21    -0.112863003595E+04   -0.26430E-03   -0.26442E-03  1320   0.146E-02-0.460E-05
CGA:  22    -0.112863022963E+04   -0.19368E-03   -0.19380E-03  1320   0.127E-02-0.433E-05
CGA:  23    -0.112863032380E+04   -0.94172E-04   -0.94186E-04  1320   0.833E-03 0.145E-06
CGA:  24    -0.112863040509E+04   -0.81289E-04   -0.81297E-04  1320   0.472E-03 0.102E-05
CGA:  25    -0.112863046134E+04   -0.56257E-04   -0.56240E-04  1320   0.309E-03 0.130E-05
CGA:  26    -0.112863049603E+04   -0.34690E-04   -0.34690E-04  1320   0.176E-03-0.119E-06
CGA:  27    -0.112863051732E+04   -0.21291E-04   -0.21280E-04  1320   0.141E-03 0.745E-06
CGA:  28    -0.112863053196E+04   -0.14638E-04   -0.14640E-04  1320   0.946E-04 0.378E-06
CGA:  29    -0.112863054170E+04   -0.97359E-05   -0.97402E-05  1320   0.827E-04 0.822E-06
  11 F= -.11286305E+04 E0= -.11286072E+04  d E =-.301066E-01  mag=    19.9910
       N       E                     dE             d eps       ncg     rms          ort
SDA:   1    -0.111833145708E+04    0.10299E+02    0.00000E+00  1320   0.353E+02 0.000E+00
CGA:   2    -0.112452281399E+04   -0.61914E+01   -0.62112E+01  1320   0.256E+02-0.209E+00
CGA:   3    -0.112628458459E+04   -0.17618E+01   -0.17738E+01  1320   0.120E+02-0.106E+00
CGA:   4    -0.112776411635E+04   -0.14795E+01   -0.14819E+01  1320   0.668E+01-0.917E-01
CGA:   5    -0.112816638135E+04   -0.40227E+00   -0.40269E+00  1320   0.246E+01 0.620E-02
CGA:   6    -0.112839407606E+04   -0.22769E+00   -0.22800E+00  1320   0.165E+01 0.820E-02
CGA:   7    -0.112853266020E+04   -0.13858E+00   -0.13901E+00  1320   0.331E+00 0.479E-02
CGA:   8    -0.112856515571E+04   -0.32496E-01   -0.32500E-01  1320   0.155E+00 0.336E-03
CGA:   9    -0.112858323346E+04   -0.18078E-01   -0.18083E-01  1320   0.109E+00-0.236E-03
CGA:  10    -0.112859179913E+04   -0.85657E-02   -0.85834E-02  1320   0.561E-01 0.146E-03
CGA:  11    -0.112859701239E+04   -0.52133E-02   -0.52144E-02  1320   0.445E-01 0.678E-04
CGA:  12    -0.112860181089E+04   -0.47985E-02   -0.47985E-02  1320   0.294E-01 0.180E-04
CGA:  13    -0.112860490165E+04   -0.30908E-02   -0.30906E-02  1320   0.170E-01 0.470E-04
CGA:  14    -0.112860720153E+04   -0.22999E-02   -0.22999E-02  1320   0.166E-01-0.313E-05
CGA:  15    -0.112860915090E+04   -0.19494E-02   -0.19490E-02  1320   0.114E-01 0.121E-04
CGA:  16    -0.112861014052E+04   -0.98962E-03   -0.98943E-03  1320   0.787E-02-0.610E-05
CGA:  17    -0.112861086059E+04   -0.72007E-03   -0.72013E-03  1320   0.452E-02 0.495E-05
CGA:  18    -0.112861133332E+04   -0.47273E-03   -0.47272E-03  1320   0.274E-02 0.462E-05
CGA:  19    -0.112861164409E+04   -0.31077E-03   -0.31074E-03  1320   0.143E-02 0.235E-05
CGA:  20    -0.112861183424E+04   -0.19015E-03   -0.19026E-03  1320   0.144E-02-0.395E-05
CGA:  21    -0.112861195701E+04   -0.12277E-03   -0.12274E-03  1320   0.947E-03-0.192E-05
CGA:  22    -0.112861205192E+04   -0.94907E-04   -0.94904E-04  1320   0.594E-03-0.469E-06
CGA:  23    -0.112861211973E+04   -0.67813E-04   -0.67801E-04  1320   0.463E-03 0.123E-05
CGA:  24    -0.112861216908E+04   -0.49349E-04   -0.49347E-04  1320   0.256E-03 0.142E-05
CGA:  25    -0.112861220020E+04   -0.31116E-04   -0.31096E-04  1320   0.189E-03 0.125E-05
CGA:  26    -0.112861221870E+04   -0.18499E-04   -0.18497E-04  1320   0.147E-03-0.201E-06
CGA:  27    -0.112861223126E+04   -0.12559E-04   -0.12554E-04  1320   0.856E-04-0.259E-06
CGA:  28    -0.112861224191E+04   -0.10657E-04   -0.10655E-04  1320   0.577E-04 0.127E-06
CGA:  29    -0.112861224911E+04   -0.71926E-05   -0.71660E-05  1320   0.442E-04 0.142E-05
  12 F= -.11286122E+04 E0= -.11285901E+04  d E =0.182926E-01  mag=    19.9956
       N       E                     dE             d eps       ncg     rms          ort
SDA:   1    -0.112442788910E+04    0.41844E+01    0.00000E+00  1320   0.147E+02 0.000E+00
CGA:   2    -0.112711329973E+04   -0.26854E+01   -0.26832E+01  1320   0.759E+01 0.305E-01
CGA:   3    -0.112777253834E+04   -0.65924E+00   -0.65525E+00  1320   0.569E+01-0.404E-01
CGA:   4    -0.112830287586E+04   -0.53034E+00   -0.53091E+00  1320   0.220E+01 0.114E-01
CGA:   5    -0.112846040231E+04   -0.15753E+00   -0.15806E+00  1320   0.115E+01 0.684E-03
CGA:   6    -0.112855851938E+04   -0.98117E-01   -0.98261E-01  1320   0.556E+00 0.175E-02
CGA:   7    -0.112860929461E+04   -0.50775E-01   -0.50767E-01  1320   0.160E+00-0.160E-03
CGA:   8    -0.112862371177E+04   -0.14417E-01   -0.14434E-01  1320   0.576E-01 0.345E-03
CGA:   9    -0.112863130458E+04   -0.75928E-02   -0.75933E-02  1320   0.373E-01-0.154E-04
CGA:  10    -0.112863495071E+04   -0.36461E-02   -0.36451E-02  1320   0.253E-01-0.489E-04
CGA:  11    -0.112863700632E+04   -0.20556E-02   -0.20553E-02  1320   0.179E-01 0.310E-05
CGA:  12    -0.112863913478E+04   -0.21285E-02   -0.21278E-02  1320   0.132E-01 0.356E-04
CGA:  13    -0.112864040243E+04   -0.12677E-02   -0.12679E-02  1320   0.830E-02 0.190E-04
CGA:  14    -0.112864135705E+04   -0.95462E-03   -0.95436E-03  1320   0.654E-02 0.201E-04
CGA:  15    -0.112864234924E+04   -0.99218E-03   -0.99179E-03  1320   0.361E-02 0.857E-05
CGA:  16    -0.112864275000E+04   -0.40076E-03   -0.40074E-03  1320   0.267E-02 0.645E-05
CGA:  17    -0.112864298997E+04   -0.23997E-03   -0.23994E-03  1320   0.195E-02-0.575E-06
CGA:  18    -0.112864315685E+04   -0.16688E-03   -0.16687E-03  1320   0.103E-02-0.936E-06
CGA:  19    -0.112864326828E+04   -0.11143E-03   -0.11143E-03  1320   0.553E-03-0.123E-05
CGA:  20    -0.112864334567E+04   -0.77399E-04   -0.77450E-04  1320   0.544E-03-0.146E-05
CGA:  21    -0.112864339606E+04   -0.50390E-04   -0.50360E-04  1320   0.277E-03-0.219E-05
CGA:  22    -0.112864343178E+04   -0.35718E-04   -0.35748E-04  1320   0.229E-03-0.136E-05
CGA:  23    -0.112864345342E+04   -0.21634E-04   -0.21618E-04  1320   0.193E-03-0.122E-05
CGA:  24    -0.112864346951E+04   -0.16093E-04   -0.16089E-04  1320   0.894E-04-0.186E-06
CGA:  25    -0.112864348115E+04   -0.11640E-04   -0.11626E-04  1320   0.584E-04 0.573E-06
CGA:  26    -0.112864348816E+04   -0.70116E-05   -0.70147E-05  1320   0.368E-04-0.281E-06
  13 F= -.11286435E+04 E0= -.11286210E+04  d E =-.312391E-01  mag=    19.9963
       N       E                     dE             d eps       ncg     rms          ort
SDA:   1    -0.112557021666E+04    0.30733E+01    0.00000E+00  1320   0.995E+01 0.000E+00
CGA:   2    -0.112759985923E+04   -0.20296E+01   -0.20307E+01  1320   0.525E+01-0.914E-02
CGA:   3    -0.112808182095E+04   -0.48196E+00   -0.48338E+00  1320   0.356E+01 0.198E-01
CGA:   4    -0.112839835758E+04   -0.31654E+00   -0.31506E+00  1320   0.183E+01-0.143E-01
CGA:   5    -0.112851853963E+04   -0.12018E+00   -0.12029E+00  1320   0.660E+00-0.148E-03
CGA:   6    -0.112859037485E+04   -0.71835E-01   -0.71832E-01  1320   0.392E+00 0.438E-02
CGA:   7    -0.112861954459E+04   -0.29170E-01   -0.29054E-01  1320   0.103E+00-0.404E-04
CGA:   8    -0.112862847969E+04   -0.89351E-02   -0.89244E-02  1320   0.435E-01-0.157E-03
CGA:   9    -0.112863389500E+04   -0.54153E-02   -0.54150E-02  1320   0.298E-01 0.738E-05
CGA:  10    -0.112863621777E+04   -0.23228E-02   -0.23220E-02  1320   0.190E-01-0.249E-05
CGA:  11    -0.112863792085E+04   -0.17031E-02   -0.17034E-02  1320   0.117E-01 0.137E-04
CGA:  12    -0.112863942732E+04   -0.15065E-02   -0.15059E-02  1320   0.869E-02 0.206E-04
CGA:  13    -0.112864042503E+04   -0.99771E-03   -0.99751E-03  1320   0.539E-02 0.192E-04
CGA:  14    -0.112864116071E+04   -0.73568E-03   -0.73561E-03  1320   0.552E-02 0.251E-05
CGA:  15    -0.112864173503E+04   -0.57432E-03   -0.57434E-03  1320   0.446E-02 0.387E-05
CGA:  16    -0.112864208147E+04   -0.34643E-03   -0.34645E-03  1320   0.218E-02 0.201E-05
CGA:  17    -0.112864231544E+04   -0.23398E-03   -0.23397E-03  1320   0.137E-02 0.427E-05
CGA:  18    -0.112864247083E+04   -0.15538E-03   -0.15537E-03  1320   0.872E-03 0.173E-05
CGA:  19    -0.112864255474E+04   -0.83913E-04   -0.83913E-04  1320   0.516E-03 0.116E-06
CGA:  20    -0.112864261449E+04   -0.59752E-04   -0.59782E-04  1320   0.433E-03-0.308E-05
CGA:  21    -0.112864265560E+04   -0.41104E-04   -0.41078E-04  1320   0.326E-03-0.233E-05
CGA:  22    -0.112864268339E+04   -0.27798E-04   -0.27764E-04  1320   0.178E-03-0.160E-05
CGA:  23    -0.112864270715E+04   -0.23753E-04   -0.23772E-04  1320   0.126E-03-0.640E-06
CGA:  24    -0.112864272178E+04   -0.14632E-04   -0.14628E-04  1320   0.789E-04 0.338E-06
CGA:  25    -0.112864273019E+04   -0.84152E-05   -0.84154E-05  1320   0.673E-04 0.899E-06
  14 F= -.11286427E+04 E0= -.11286203E+04  d E =0.757967E-03  mag=    19.9972
       N       E                     dE             d eps       ncg     rms          ort
SDA:   1    -0.110634258795E+04    0.22300E+02    0.00000E+00  1320   0.875E+02 0.000E+00
CGA:   2    -0.111822271700E+04   -0.11880E+02   -0.11896E+02  1320   0.442E+02-0.325E+00
CGA:   3    -0.112242023551E+04   -0.41975E+01   -0.41914E+01  1320   0.372E+02-0.167E+00
CGA:   4    -0.112590589632E+04   -0.34857E+01   -0.34889E+01  1320   0.224E+02 0.190E+00
CGA:   5    -0.112739800219E+04   -0.14921E+01   -0.14441E+01  1320   0.483E+01 0.208E+00
CGA:   6    -0.112787701998E+04   -0.47902E+00   -0.48027E+00  1320   0.194E+01 0.112E+00
CGA:   7    -0.112810112494E+04   -0.22410E+00   -0.22430E+00  1320   0.852E+00-0.116E-01
CGA:   8    -0.112817036105E+04   -0.69236E-01   -0.69317E-01  1320   0.357E+00 0.101E-02
CGA:   9    -0.112820855532E+04   -0.38194E-01   -0.38185E-01  1320   0.161E+00 0.127E-02
CGA:  10    -0.112822737187E+04   -0.18817E-01   -0.18813E-01  1320   0.923E-01 0.164E-03
CGA:  11    -0.112823701912E+04   -0.96473E-02   -0.96466E-02  1320   0.600E-01 0.422E-03
CGA:  12    -0.112824322920E+04   -0.62101E-02   -0.62102E-02  1320   0.457E-01 0.147E-03
CGA:  13    -0.112824655610E+04   -0.33269E-02   -0.33254E-02  1320   0.243E-01-0.120E-05
CGA:  14    -0.112824967784E+04   -0.31217E-02   -0.31197E-02  1320   0.156E-01 0.585E-04
CGA:  15    -0.112825180711E+04   -0.21293E-02   -0.21279E-02  1320   0.107E-01 0.357E-04
CGA:  16    -0.112825318991E+04   -0.13828E-02   -0.13824E-02  1320   0.690E-02 0.146E-04
CGA:  17    -0.112825398754E+04   -0.79763E-03   -0.79756E-03  1320   0.436E-02 0.625E-05
CGA:  18    -0.112825437203E+04   -0.38450E-03   -0.38460E-03  1320   0.370E-02 0.110E-05
CGA:  19    -0.112825470354E+04   -0.33151E-03   -0.33145E-03  1320   0.179E-02-0.501E-05
CGA:  20    -0.112825494206E+04   -0.23852E-03   -0.23862E-03  1320   0.127E-02-0.374E-05
CGA:  21    -0.112825510906E+04   -0.16700E-03   -0.16716E-03  1320   0.920E-03-0.617E-05
CGA:  22    -0.112825522299E+04   -0.11393E-03   -0.11398E-03  1320   0.783E-03-0.318E-05
CGA:  23    -0.112825529922E+04   -0.76226E-04   -0.76207E-04  1320   0.476E-03-0.150E-05
CGA:  24    -0.112825535473E+04   -0.55505E-04   -0.55511E-04  1320   0.458E-03-0.706E-06
CGA:  25    -0.112825539115E+04   -0.36425E-04   -0.36424E-04  1320   0.245E-03-0.445E-07
CGA:  26    -0.112825541870E+04   -0.27552E-04   -0.27542E-04  1320   0.161E-03 0.157E-05
CGA:  27    -0.112825544098E+04   -0.22273E-04   -0.22253E-04  1320   0.108E-03 0.660E-06
CGA:  28    -0.112825545538E+04   -0.14409E-04   -0.14406E-04  1320   0.905E-04 0.874E-07
CGA:  29    -0.112825546587E+04   -0.10487E-04   -0.10493E-04  1320   0.888E-04-0.102E-05
CGA:  30    -0.112825547349E+04   -0.76218E-05   -0.76061E-05  1320   0.640E-04-0.695E-06
  15 F= -.11282555E+04 E0= -.11282325E+04  d E =0.387257E+00  mag=    19.9937
       N       E                     dE             d eps       ncg     rms          ort
SDA:   1    -0.111929638637E+04    0.89591E+01    0.00000E+00  1320   0.399E+02 0.000E+00
CGA:   2    -0.112464633530E+04   -0.53499E+01   -0.53450E+01  1320   0.147E+02 0.143E+00
CGA:   3    -0.112627039729E+04   -0.16241E+01   -0.16241E+01  1320   0.162E+02-0.184E+00
CGA:   4    -0.112781399827E+04   -0.15436E+01   -0.15422E+01  1320   0.855E+01-0.110E-01
CGA:   5    -0.112832388465E+04   -0.50989E+00   -0.48844E+00  1320   0.158E+01 0.191E+00
CGA:   6    -0.112850715492E+04   -0.18327E+00   -0.18334E+00  1320   0.817E+00-0.584E-02
CGA:   7    -0.112857938959E+04   -0.72235E-01   -0.72210E-01  1320   0.295E+00-0.328E-03
CGA:   8    -0.112860639043E+04   -0.27001E-01   -0.27025E-01  1320   0.142E+00 0.564E-03
CGA:   9    -0.112862135541E+04   -0.14965E-01   -0.14965E-01  1320   0.653E-01-0.286E-03
CGA:  10    -0.112862831573E+04   -0.69603E-02   -0.69602E-02  1320   0.292E-01 0.697E-04
CGA:  11    -0.112863247437E+04   -0.41586E-02   -0.41566E-02  1320   0.248E-01 0.503E-04
CGA:  12    -0.112863428583E+04   -0.18115E-02   -0.18141E-02  1320   0.149E-01 0.167E-04
CGA:  13    -0.112863554434E+04   -0.12585E-02   -0.12595E-02  1320   0.722E-02 0.162E-04
CGA:  14    -0.112863661618E+04   -0.10718E-02   -0.10719E-02  1320   0.635E-02-0.919E-06
CGA:  15    -0.112863720086E+04   -0.58469E-03   -0.58479E-03  1320   0.384E-02 0.297E-05
CGA:  16    -0.112863770285E+04   -0.50198E-03   -0.50182E-03  1320   0.235E-02 0.649E-05
CGA:  17    -0.112863799965E+04   -0.29680E-03   -0.29668E-03  1320   0.172E-02 0.584E-05
CGA:  18    -0.112863815268E+04   -0.15303E-03   -0.15305E-03  1320   0.117E-02 0.203E-05
CGA:  19    -0.112863825677E+04   -0.10410E-03   -0.10408E-03  1320   0.837E-03-0.988E-06
CGA:  20    -0.112863833622E+04   -0.79445E-04   -0.79428E-04  1320   0.467E-03-0.170E-05
CGA:  21    -0.112863840134E+04   -0.65125E-04   -0.65157E-04  1320   0.362E-03-0.101E-05
CGA:  22    -0.112863844742E+04   -0.46074E-04   -0.46070E-04  1320   0.267E-03 0.118E-06
CGA:  23    -0.112863847746E+04   -0.30038E-04   -0.30035E-04  1320   0.220E-03 0.762E-06
CGA:  24    -0.112863850049E+04   -0.23038E-04   -0.23040E-04  1320   0.162E-03 0.330E-06
CGA:  25    -0.112863851437E+04   -0.13881E-04   -0.13859E-04  1320   0.114E-03-0.102E-05
CGA:  26    -0.112863852637E+04   -0.11999E-04   -0.11997E-04  1320   0.796E-04-0.169E-05
CGA:  27    -0.112863853551E+04   -0.91350E-05   -0.91521E-05  1320   0.531E-04-0.188E-05
  16 F= -.11286385E+04 E0= -.11286153E+04  d E =-.383062E+00  mag=    19.9950
       N       E                     dE             d eps       ncg     rms          ort
SDA:   1    -0.112857146978E+04    0.67057E-01    0.00000E+00  1320   0.303E+00 0.000E+00
CGA:   2    -0.112860830669E+04   -0.36837E-01   -0.36834E-01  1320   0.257E+00 0.128E-03
CGA:   3    -0.112862270383E+04   -0.14397E-01   -0.14389E-01  1320   0.931E-01 0.104E-03
CGA:   4    -0.112863704427E+04   -0.14340E-01   -0.14338E-01  1320   0.773E-01 0.436E-04
CGA:   5    -0.112864216658E+04   -0.51223E-02   -0.51367E-02  1320   0.156E-01-0.313E-04
CGA:   6    -0.112864383868E+04   -0.16721E-02   -0.16721E-02  1320   0.897E-02 0.314E-05
CGA:   7    -0.112864458290E+04   -0.74422E-03   -0.74406E-03  1320   0.396E-02-0.325E-06
CGA:   8    -0.112864485855E+04   -0.27564E-03   -0.27581E-03  1320   0.134E-02 0.220E-05
CGA:   9    -0.112864497070E+04   -0.11215E-03   -0.11217E-03  1320   0.947E-03 0.115E-05
CGA:  10    -0.112864506284E+04   -0.92140E-04   -0.92149E-04  1320   0.317E-03 0.186E-05
CGA:  11    -0.112864510435E+04   -0.41515E-04   -0.41474E-04  1320   0.246E-03 0.148E-05
CGA:  12    -0.112864512919E+04   -0.24837E-04   -0.24843E-04  1320   0.192E-03 0.216E-05
CGA:  13    -0.112864514503E+04   -0.15845E-04   -0.15858E-04  1320   0.105E-03 0.603E-06
CGA:  14    -0.112864515477E+04   -0.97327E-05   -0.97279E-05  1320   0.739E-04-0.538E-06
CGA:  15    -0.112864516557E+04   -0.10804E-04   -0.10876E-04  1320   0.558E-04-0.156E-05
CGA:  16    -0.112864517138E+04   -0.58084E-05   -0.58110E-05  1320   0.371E-04-0.117E-05
  17 F= -.11286452E+04 E0= -.11286219E+04  d E =-.663587E-02  mag=    19.9952
       N       E                     dE             d eps       ncg     rms          ort
SDA:   1    -0.112848589987E+04    0.15927E+00    0.00000E+00  1320   0.612E+00 0.000E+00
CGA:   2    -0.112858129080E+04   -0.95391E-01   -0.95414E-01  1320   0.361E+00-0.342E-03
CGA:   3    -0.112860581625E+04   -0.24525E-01   -0.24620E-01  1320   0.270E+00-0.397E-04
CGA:   4    -0.112863615569E+04   -0.30339E-01   -0.30344E-01  1320   0.115E+00-0.288E-03
CGA:   5    -0.112864467349E+04   -0.85178E-02   -0.85319E-02  1320   0.335E-01 0.690E-04
CGA:   6    -0.112864894059E+04   -0.42671E-02   -0.42673E-02  1320   0.190E-01-0.267E-05
CGA:   7    -0.112865022479E+04   -0.12842E-02   -0.12850E-02  1320   0.752E-02 0.794E-05
CGA:   8    -0.112865074052E+04   -0.51574E-03   -0.51601E-03  1320   0.286E-02 0.654E-05
CGA:   9    -0.112865106655E+04   -0.32603E-03   -0.32589E-03  1320   0.145E-02 0.992E-05
CGA:  10    -0.112865121238E+04   -0.14583E-03   -0.14583E-03  1320   0.860E-03 0.262E-05
CGA:  11    -0.112865129960E+04   -0.87222E-04   -0.87223E-04  1320   0.762E-03 0.349E-05
CGA:  12    -0.112865136513E+04   -0.65530E-04   -0.65571E-04  1320   0.373E-03 0.261E-05
CGA:  13    -0.112865140454E+04   -0.39411E-04   -0.39410E-04  1320   0.291E-03 0.234E-06
CGA:  14    -0.112865143382E+04   -0.29276E-04   -0.29275E-04  1320   0.198E-03-0.200E-05
CGA:  15    -0.112865145904E+04   -0.25227E-04   -0.25309E-04  1320   0.152E-03-0.294E-05
CGA:  16    -0.112865147331E+04   -0.14264E-04   -0.14243E-04  1320   0.113E-03-0.278E-05
CGA:  17    -0.112865148295E+04   -0.96407E-05   -0.96143E-05  1320   0.716E-04-0.167E-05
  18 F= -.11286515E+04 E0= -.11286283E+04  d E =-.631157E-02  mag=    19.9955
       N       E                     dE             d eps       ncg     rms          ort
SDA:   1    -0.112853221773E+04    0.11926E+00    0.00000E+00  1320   0.426E+00 0.000E+00
CGA:   2    -0.112860487192E+04   -0.72654E-01   -0.72676E-01  1320   0.272E+00-0.278E-03
CGA:   3    -0.112862425011E+04   -0.19378E-01   -0.19428E-01  1320   0.173E+00 0.770E-04
CGA:   4    -0.112864179719E+04   -0.17547E-01   -0.17547E-01  1320   0.100E+00-0.415E-04
CGA:   5    -0.112864831954E+04   -0.65223E-02   -0.65184E-02  1320   0.283E-01 0.459E-04
CGA:   6    -0.112865134349E+04   -0.30240E-02   -0.30238E-02  1320   0.178E-01 0.146E-04
CGA:   7    -0.112865286346E+04   -0.15200E-02   -0.15196E-02  1320   0.485E-02-0.556E-05
CGA:   8    -0.112865324508E+04   -0.38162E-03   -0.38171E-03  1320   0.197E-02 0.227E-05
CGA:   9    -0.112865344646E+04   -0.20139E-03   -0.20138E-03  1320   0.175E-02 0.321E-05
CGA:  10    -0.112865357305E+04   -0.12659E-03   -0.12660E-03  1320   0.616E-03 0.180E-05
CGA:  11    -0.112865364646E+04   -0.73414E-04   -0.73328E-04  1320   0.534E-03 0.411E-05
CGA:  12    -0.112865371230E+04   -0.65842E-04   -0.65747E-04  1320   0.288E-03 0.416E-05
CGA:  13    -0.112865374396E+04   -0.31655E-04   -0.31658E-04  1320   0.246E-03-0.306E-06
CGA:  14    -0.112865376780E+04   -0.23844E-04   -0.23838E-04  1320   0.225E-03-0.178E-05
CGA:  15    -0.112865378964E+04   -0.21831E-04   -0.21824E-04  1320   0.134E-03-0.222E-05
CGA:  16    -0.112865380466E+04   -0.15027E-04   -0.15061E-04  1320   0.832E-04-0.270E-05
CGA:  17    -0.112865381304E+04   -0.83742E-05   -0.83747E-05  1320   0.553E-04-0.565E-06
  19 F= -.11286538E+04 E0= -.11286307E+04  d E =-.233009E-02  mag=    19.9958
       N       E                     dE             d eps       ncg     rms          ort
SDA:   1    -0.112729755787E+04    0.13562E+01    0.00000E+00  1320   0.458E+01 0.000E+00
CGA:   2    -0.112817693647E+04   -0.87938E+00   -0.87977E+00  1320   0.231E+01-0.404E-02
CGA:   3    -0.112836141650E+04   -0.18448E+00   -0.18558E+00  1320   0.205E+01 0.849E-02
CGA:   4    -0.112854207576E+04   -0.18066E+00   -0.18071E+00  1320   0.664E+00 0.144E-02
CGA:   5    -0.112859527140E+04   -0.53196E-01   -0.53035E-01  1320   0.312E+00-0.117E-02
CGA:   6    -0.112863006690E+04   -0.34795E-01   -0.34804E-01  1320   0.141E+00-0.541E-03
CGA:   7    -0.112864116149E+04   -0.11095E-01   -0.11122E-01  1320   0.460E-01 0.233E-03
CGA:   8    -0.112864425796E+04   -0.30965E-02   -0.30937E-02  1320   0.223E-01 0.429E-05
CGA:   9    -0.112864671018E+04   -0.24522E-02   -0.24522E-02  1320   0.145E-01 0.679E-05
CGA:  10    -0.112864781690E+04   -0.11067E-02   -0.11076E-02  1320   0.649E-02 0.154E-04
CGA:  11    -0.112864868765E+04   -0.87075E-03   -0.87006E-03  1320   0.574E-02 0.205E-04
CGA:  12    -0.112864929451E+04   -0.60686E-03   -0.60685E-03  1320   0.352E-02 0.696E-05
CGA:  13    -0.112864962555E+04   -0.33104E-03   -0.33108E-03  1320   0.293E-02 0.413E-05
CGA:  14    -0.112864991809E+04   -0.29254E-03   -0.29253E-03  1320   0.240E-02-0.775E-05
CGA:  15    -0.112865020059E+04   -0.28250E-03   -0.28271E-03  1320   0.137E-02-0.124E-04
CGA:  16    -0.112865036112E+04   -0.16053E-03   -0.16062E-03  1320   0.848E-03-0.551E-05
CGA:  17    -0.112865044533E+04   -0.84207E-04   -0.84206E-04  1320   0.787E-03-0.515E-06
CGA:  18    -0.112865051268E+04   -0.67349E-04   -0.67332E-04  1320   0.353E-03-0.935E-06
CGA:  19    -0.112865054723E+04   -0.34551E-04   -0.34550E-04  1320   0.226E-03 0.242E-07
CGA:  20    -0.112865057952E+04   -0.32291E-04   -0.32278E-04  1320   0.194E-03 0.302E-06
CGA:  21    -0.112865059703E+04   -0.17510E-04   -0.17520E-04  1320   0.125E-03 0.768E-06
CGA:  22    -0.112865060863E+04   -0.11607E-04   -0.11615E-04  1320   0.920E-04 0.803E-06
CGA:  23    -0.112865061980E+04   -0.11165E-04   -0.11135E-04  1320   0.700E-04 0.172E-05
CGA:  24    -0.112865062626E+04   -0.64623E-05   -0.64716E-05  1320   0.385E-04 0.737E-06
  20 F= -.11286506E+04 E0= -.11286277E+04  d E =0.318678E-02  mag=    19.9968
       N       E                     dE             d eps       ncg     rms          ort
SDA:   1    -0.112582843473E+04    0.28222E+01    0.00000E+00  1320   0.913E+01 0.000E+00
CGA:   2    -0.112764512580E+04   -0.18167E+01   -0.18181E+01  1320   0.530E+01-0.142E-01
CGA:   3    -0.112809858122E+04   -0.45346E+00   -0.45471E+00  1320   0.329E+01 0.163E-01
CGA:   4    -0.112838785384E+04   -0.28927E+00   -0.28923E+00  1320   0.199E+01 0.732E-03
CGA:   5    -0.112852151181E+04   -0.13366E+00   -0.13136E+00  1320   0.520E+00 0.695E-02
CGA:   6    -0.112859530720E+04   -0.73795E-01   -0.73754E-01  1320   0.319E+00 0.854E-03
CGA:   7    -0.112861588426E+04   -0.20577E-01   -0.20560E-01  1320   0.802E-01 0.308E-04
CGA:   8    -0.112862332058E+04   -0.74363E-02   -0.74388E-02  1320   0.485E-01 0.733E-04
CGA:   9    -0.112862766411E+04   -0.43435E-02   -0.43448E-02  1320   0.282E-01 0.290E-04
CGA:  10    -0.112862989422E+04   -0.22301E-02   -0.22317E-02  1320   0.162E-01 0.283E-04
CGA:  11    -0.112863183152E+04   -0.19373E-02   -0.19369E-02  1320   0.984E-02 0.242E-04
CGA:  12    -0.112863306561E+04   -0.12341E-02   -0.12337E-02  1320   0.739E-02 0.177E-04
CGA:  13    -0.112863392218E+04   -0.85656E-03   -0.85641E-03  1320   0.628E-02 0.106E-04
CGA:  14    -0.112863445615E+04   -0.53397E-03   -0.53397E-03  1320   0.496E-02-0.116E-05
CGA:  15    -0.112863504400E+04   -0.58784E-03   -0.58803E-03  1320   0.333E-02-0.114E-04
CGA:  16    -0.112863541777E+04   -0.37377E-03   -0.37375E-03  1320   0.184E-02 0.371E-06
CGA:  17    -0.112863561452E+04   -0.19675E-03   -0.19676E-03  1320   0.133E-02-0.101E-05
CGA:  18    -0.112863573744E+04   -0.12292E-03   -0.12295E-03  1320   0.895E-03 0.237E-05
CGA:  19    -0.112863581482E+04   -0.77380E-04   -0.77411E-04  1320   0.500E-03 0.193E-05
CGA:  20    -0.112863587260E+04   -0.57781E-04   -0.57771E-04  1320   0.385E-03 0.796E-06
CGA:  21    -0.112863591230E+04   -0.39701E-04   -0.39700E-04  1320   0.252E-03-0.914E-06
CGA:  22    -0.112863594318E+04   -0.30881E-04   -0.30879E-04  1320   0.193E-03 0.178E-06
CGA:  23    -0.112863596086E+04   -0.17675E-04   -0.17670E-04  1320   0.133E-03-0.313E-06
CGA:  24    -0.112863597339E+04   -0.12536E-04   -0.12538E-04  1320   0.979E-04 0.207E-06
CGA:  25    -0.112863598446E+04   -0.11072E-04   -0.11066E-04  1320   0.562E-04 0.699E-06
CGA:  26    -0.112863599023E+04   -0.57688E-05   -0.57692E-05  1320   0.341E-04 0.171E-06
  21 F= -.11286360E+04 E0= -.11286133E+04  d E =0.146360E-01  mag=    19.9977
       N       E                     dE             d eps       ncg     rms          ort
SDA:   1    -0.112646200622E+04    0.21740E+01    0.00000E+00  1320   0.687E+01 0.000E+00
CGA:   2    -0.112785822261E+04   -0.13962E+01   -0.13964E+01  1320   0.363E+01-0.965E-03
CGA:   3    -0.112824721817E+04   -0.38900E+00   -0.38908E+00  1320   0.276E+01 0.155E-01
CGA:   4    -0.112848822446E+04   -0.24101E+00   -0.24041E+00  1320   0.945E+00-0.606E-02
CGA:   5    -0.112855851294E+04   -0.70288E-01   -0.70611E-01  1320   0.519E+00 0.582E-03
CGA:   6    -0.112860383723E+04   -0.45324E-01   -0.45294E-01  1320   0.260E+00-0.326E-03
CGA:   7    -0.112862299860E+04   -0.19161E-01   -0.19126E-01  1320   0.769E-01 0.145E-04
CGA:   8    -0.112862928698E+04   -0.62884E-02   -0.62891E-02  1320   0.305E-01 0.142E-04
CGA:   9    -0.112863326785E+04   -0.39809E-02   -0.39787E-02  1320   0.174E-01 0.590E-04
CGA:  10    -0.112863487116E+04   -0.16033E-02   -0.16028E-02  1320   0.130E-01-0.993E-05
CGA:  11    -0.112863595650E+04   -0.10853E-02   -0.10858E-02  1320   0.851E-02 0.130E-04
CGA:  12    -0.112863689269E+04   -0.93619E-03   -0.93608E-03  1320   0.529E-02 0.126E-04
CGA:  13    -0.112863750958E+04   -0.61688E-03   -0.61679E-03  1320   0.361E-02 0.576E-05
CGA:  14    -0.112863800775E+04   -0.49818E-03   -0.49850E-03  1320   0.327E-02-0.814E-05
CGA:  15    -0.112863833863E+04   -0.33087E-03   -0.33087E-03  1320   0.259E-02-0.132E-05
CGA:  16    -0.112863856860E+04   -0.22998E-03   -0.22995E-03  1320   0.154E-02-0.641E-06
CGA:  17    -0.112863870488E+04   -0.13627E-03   -0.13629E-03  1320   0.874E-03 0.117E-05
CGA:  18    -0.112863880374E+04   -0.98865E-04   -0.98867E-04  1320   0.538E-03-0.242E-06
CGA:  19    -0.112863886074E+04   -0.56993E-04   -0.56994E-04  1320   0.364E-03-0.735E-06
CGA:  20    -0.112863890003E+04   -0.39292E-04   -0.39299E-04  1320   0.254E-03-0.208E-05
CGA:  21    -0.112863892584E+04   -0.25814E-04   -0.25812E-04  1320   0.221E-03-0.889E-06
CGA:  22    -0.112863894408E+04   -0.18233E-04   -0.18224E-04  1320   0.122E-03-0.426E-06
CGA:  23    -0.112863896023E+04   -0.16158E-04   -0.16149E-04  1320   0.703E-04 0.295E-06
CGA:  24    -0.112863896970E+04   -0.94697E-05   -0.94434E-05  1320   0.589E-04 0.908E-06
  22 F= -.11286390E+04 E0= -.11286162E+04  d E =-.297947E-02  mag=    19.9980
       N       E                     dE             d eps       ncg     rms          ort
SDA:   1    -0.112161582268E+04    0.70231E+01    0.00000E+00  1320   0.215E+02 0.000E+00
CGA:   2    -0.112588197282E+04   -0.42662E+01   -0.42716E+01  1320   0.170E+02-0.563E-01
CGA:   3    -0.112701545391E+04   -0.11335E+01   -0.11433E+01  1320   0.106E+02 0.356E-01
CGA:   4    -0.112797921627E+04   -0.96376E+00   -0.97144E+00  1320   0.472E+01 0.162E+00
CGA:   5    -0.112836111144E+04   -0.38190E+00   -0.37713E+00  1320   0.127E+01-0.181E-01
CGA:   6    -0.112851694361E+04   -0.15583E+00   -0.15579E+00  1320   0.904E+00 0.176E-02
CGA:   7    -0.112858169614E+04   -0.64753E-01   -0.64620E-01  1320   0.224E+00-0.873E-04
CGA:   8    -0.112860240126E+04   -0.20705E-01   -0.20710E-01  1320   0.102E+00 0.117E-03
CGA:   9    -0.112861293622E+04   -0.10535E-01   -0.10535E-01  1320   0.854E-01 0.746E-04
CGA:  10    -0.112861866661E+04   -0.57304E-02   -0.57441E-02  1320   0.341E-01-0.448E-05
CGA:  11    -0.112862276203E+04   -0.40954E-02   -0.40948E-02  1320   0.242E-01 0.252E-04
CGA:  12    -0.112862596919E+04   -0.32072E-02   -0.32054E-02  1320   0.125E-01 0.535E-04
CGA:  13    -0.112862784922E+04   -0.18800E-02   -0.18785E-02  1320   0.107E-01 0.309E-04
CGA:  14    -0.112862894629E+04   -0.10971E-02   -0.10971E-02  1320   0.110E-01 0.874E-05
CGA:  15    -0.112862995016E+04   -0.10039E-02   -0.10040E-02  1320   0.622E-02 0.742E-05
CGA:  16    -0.112863057131E+04   -0.62115E-03   -0.62122E-03  1320   0.394E-02 0.890E-05
CGA:  17    -0.112863094951E+04   -0.37820E-03   -0.37827E-03  1320   0.224E-02 0.575E-05
CGA:  18    -0.112863121838E+04   -0.26887E-03   -0.26881E-03  1320   0.127E-02 0.334E-05
CGA:  19    -0.112863135979E+04   -0.14142E-03   -0.14142E-03  1320   0.906E-03-0.101E-05
CGA:  20    -0.112863145281E+04   -0.93018E-04   -0.93012E-04  1320   0.770E-03-0.218E-05
CGA:  21    -0.112863152323E+04   -0.70421E-04   -0.70374E-04  1320   0.513E-03-0.327E-05
CGA:  22    -0.112863157110E+04   -0.47870E-04   -0.47847E-04  1320   0.318E-03-0.193E-05
CGA:  23    -0.112863161407E+04   -0.42965E-04   -0.42996E-04  1320   0.193E-03-0.979E-06
CGA:  24    -0.112863163874E+04   -0.24669E-04   -0.24648E-04  1320   0.136E-03 0.957E-06
CGA:  25    -0.112863165264E+04   -0.13905E-04   -0.13903E-04  1320   0.118E-03-0.164E-06
CGA:  26    -0.112863166188E+04   -0.92436E-05   -0.92399E-05  1320   0.574E-04-0.152E-06
  23 F= -.11286317E+04 E0= -.11286088E+04  d E =0.730782E-02  mag=    19.9982
       N       E                     dE             d eps       ncg     rms          ort
SDA:   1    -0.112769674715E+04    0.93491E+00    0.00000E+00  1320   0.390E+01 0.000E+00
CGA:   2    -0.112821418650E+04   -0.51744E+00   -0.51742E+00  1320   0.183E+01 0.108E-02
CGA:   3    -0.112837814306E+04   -0.16396E+00   -0.16392E+00  1320   0.161E+01 0.770E-04
CGA:   4    -0.112853394192E+04   -0.15580E+00   -0.15564E+00  1320   0.106E+01-0.594E-02
CGA:   5    -0.112860530474E+04   -0.71363E-01   -0.71910E-01  1320   0.177E+00-0.692E-03
CGA:   6    -0.112862553634E+04   -0.20232E-01   -0.20241E-01  1320   0.842E-01-0.551E-03
CGA:   7    -0.112863321201E+04   -0.76757E-02   -0.76792E-02  1320   0.395E-01 0.104E-03
CGA:   8    -0.112863625528E+04   -0.30433E-02   -0.30418E-02  1320   0.160E-01 0.854E-05
CGA:   9    -0.112863763106E+04   -0.13758E-02   -0.13766E-02  1320   0.984E-02 0.230E-04
CGA:  10    -0.112863846845E+04   -0.83738E-03   -0.83717E-03  1320   0.506E-02 0.156E-05
CGA:  11    -0.112863895296E+04   -0.48451E-03   -0.48452E-03  1320   0.294E-02 0.349E-05
CGA:  12    -0.112863930125E+04   -0.34829E-03   -0.34836E-03  1320   0.169E-02-0.309E-05
CGA:  13    -0.112863950118E+04   -0.19993E-03   -0.19994E-03  1320   0.117E-02-0.476E-06
CGA:  14    -0.112863960275E+04   -0.10157E-03   -0.10155E-03  1320   0.970E-03-0.112E-05
CGA:  15    -0.112863969559E+04   -0.92834E-04   -0.92825E-04  1320   0.600E-03-0.155E-05
CGA:  16    -0.112863976856E+04   -0.72975E-04   -0.73029E-04  1320   0.375E-03-0.254E-05
CGA:  17    -0.112863981433E+04   -0.45769E-04   -0.45796E-04  1320   0.219E-03-0.131E-05
CGA:  18    -0.112863983671E+04   -0.22374E-04   -0.22373E-04  1320   0.209E-03-0.751E-06
CGA:  19    -0.112863985287E+04   -0.16165E-04   -0.16155E-04  1320   0.903E-04-0.370E-06
CGA:  20    -0.112863986410E+04   -0.11232E-04   -0.11245E-04  1320   0.786E-04-0.550E-06
CGA:  21    -0.112863987156E+04   -0.74602E-05   -0.74577E-05  1320   0.508E-04-0.326E-06
  24 F= -.11286399E+04 E0= -.11286168E+04  d E =-.820968E-02  mag=    19.9982
       N       E                     dE             d eps       ncg     rms          ort
SDA:   1    -0.112833134373E+04    0.30852E+00    0.00000E+00  1320   0.104E+01 0.000E+00
CGA:   2    -0.112851931320E+04   -0.18797E+00   -0.18804E+00  1320   0.641E+00-0.816E-03
CGA:   3    -0.112857952701E+04   -0.60214E-01   -0.60287E-01  1320   0.454E+00 0.193E-02
CGA:   4    -0.112861716934E+04   -0.37642E-01   -0.37564E-01  1320   0.254E+00-0.618E-03
CGA:   5    -0.112863373208E+04   -0.16563E-01   -0.16571E-01  1320   0.605E-01-0.238E-04
CGA:   6    -0.112864166171E+04   -0.79296E-02   -0.79236E-02  1320   0.372E-01 0.157E-03
CGA:   7    -0.112864455375E+04   -0.28920E-02   -0.28864E-02  1320   0.108E-01-0.346E-04
CGA:   8    -0.112864544484E+04   -0.89108E-03   -0.89066E-03  1320   0.529E-02-0.157E-04
CGA:   9    -0.112864596820E+04   -0.52336E-03   -0.52333E-03  1320   0.321E-02-0.829E-05
CGA:  10    -0.112864621002E+04   -0.24182E-03   -0.24177E-03  1320   0.191E-02-0.123E-05
CGA:  11    -0.112864640572E+04   -0.19570E-03   -0.19569E-03  1320   0.116E-02 0.292E-05
CGA:  12    -0.112864654494E+04   -0.13922E-03   -0.13915E-03  1320   0.692E-03 0.385E-05
CGA:  13    -0.112864663442E+04   -0.89477E-04   -0.89377E-04  1320   0.516E-03 0.376E-05
CGA:  14    -0.112864669518E+04   -0.60761E-04   -0.60753E-04  1320   0.484E-03 0.626E-06
CGA:  15    -0.112864673579E+04   -0.40614E-04   -0.40638E-04  1320   0.350E-03 0.108E-05
CGA:  16    -0.112864677268E+04   -0.36890E-04   -0.36887E-04  1320   0.193E-03 0.130E-05
CGA:  17    -0.112864679384E+04   -0.21157E-04   -0.21154E-04  1320   0.103E-03 0.527E-06
CGA:  18    -0.112864680614E+04   -0.12295E-04   -0.12289E-04  1320   0.726E-04 0.455E-06
CGA:  19    -0.112864681268E+04   -0.65441E-05   -0.65504E-05  1320   0.488E-04 0.426E-06
  25 F= -.11286468E+04 E0= -.11286237E+04  d E =-.694112E-02  mag=    19.9982
       N       E                     dE             d eps       ncg     rms          ort
SDA:   1    -0.112556318972E+04    0.30836E+01    0.00000E+00  1320   0.936E+01 0.000E+00
CGA:   2    -0.112757912248E+04   -0.20159E+01   -0.20172E+01  1320   0.487E+01-0.107E-01
CGA:   3    -0.112813265236E+04   -0.55353E+00   -0.55313E+00  1320   0.378E+01 0.443E-01
CGA:   4    -0.112845746230E+04   -0.32481E+00   -0.32377E+00  1320   0.109E+01-0.810E-02
CGA:   5    -0.112855347018E+04   -0.96008E-01   -0.96305E-01  1320   0.578E+00 0.459E-02
CGA:   6    -0.112861118209E+04   -0.57712E-01   -0.57723E-01  1320   0.293E+00 0.696E-03
CGA:   7    -0.112862772083E+04   -0.16539E-01   -0.16476E-01  1320   0.861E-01 0.515E-03
CGA:   8    -0.112863549512E+04   -0.77743E-02   -0.77753E-02  1320   0.431E-01 0.714E-05
CGA:   9    -0.112864040340E+04   -0.49083E-02   -0.49093E-02  1320   0.220E-01-0.606E-04
CGA:  10    -0.112864270249E+04   -0.22991E-02   -0.22991E-02  1320   0.126E-01 0.121E-04
CGA:  11    -0.112864442348E+04   -0.17210E-02   -0.17209E-02  1320   0.103E-01 0.603E-05
CGA:  12    -0.112864533975E+04   -0.91627E-03   -0.91674E-03  1320   0.696E-02 0.172E-04
CGA:  13    -0.112864597379E+04   -0.63404E-03   -0.63409E-03  1320   0.555E-02 0.509E-05
CGA:  14    -0.112864660309E+04   -0.62930E-03   -0.62932E-03  1320   0.438E-02-0.376E-06
CGA:  15    -0.112864707970E+04   -0.47661E-03   -0.47659E-03  1320   0.281E-02 0.323E-05
CGA:  16    -0.112864737731E+04   -0.29761E-03   -0.29760E-03  1320   0.149E-02 0.572E-05
CGA:  17    -0.112864756809E+04   -0.19078E-03   -0.19071E-03  1320   0.113E-02 0.317E-05
CGA:  18    -0.112864766981E+04   -0.10172E-03   -0.10176E-03  1320   0.765E-03 0.211E-05
CGA:  19    -0.112864773137E+04   -0.61559E-04   -0.61546E-04  1320   0.480E-03-0.447E-06
CGA:  20    -0.112864779128E+04   -0.59909E-04   -0.59960E-04  1320   0.350E-03-0.242E-05
CGA:  21    -0.112864783224E+04   -0.40955E-04   -0.40977E-04  1320   0.200E-03-0.178E-05
CGA:  22    -0.112864785541E+04   -0.23172E-04   -0.23181E-04  1320   0.181E-03-0.806E-06
CGA:  23    -0.112864787515E+04   -0.19738E-04   -0.19739E-04  1320   0.121E-03-0.352E-06
CGA:  24    -0.112864788478E+04   -0.96365E-05   -0.96459E-05  1320   0.748E-04 0.374E-06
  26 F= -.11286479E+04 E0= -.11286246E+04  d E =-.107210E-02  mag=    19.9982
       N       E                     dE             d eps       ncg     rms          ort
SDA:   1    -0.111007374792E+04    0.18574E+02    0.00000E+00  1320   0.793E+02 0.000E+00
CGA:   2    -0.112022835454E+04   -0.10155E+02   -0.10177E+02  1320   0.343E+02-0.609E+00
CGA:   3    -0.112315870776E+04   -0.29304E+01   -0.28979E+01  1320   0.303E+02-0.235E+00
CGA:   4    -0.112617067102E+04   -0.30120E+01   -0.30181E+01  1320   0.193E+02 0.597E+00
CGA:   5    -0.112739322890E+04   -0.12226E+01   -0.12480E+01  1320   0.617E+01-0.298E-01
CGA:   6    -0.112780719223E+04   -0.41396E+00   -0.40698E+00  1320   0.195E+01 0.941E-02
CGA:   7    -0.112800279442E+04   -0.19560E+00   -0.19562E+00  1320   0.973E+00 0.113E-01
CGA:   8    -0.112808452971E+04   -0.81735E-01   -0.82251E-01  1320   0.515E+00 0.959E-02
CGA:   9    -0.112811421902E+04   -0.29689E-01   -0.29582E-01  1320   0.225E+00 0.752E-03
CGA:  10    -0.112813737660E+04   -0.23158E-01   -0.23151E-01  1320   0.123E+00 0.816E-03
CGA:  11    -0.112815006533E+04   -0.12689E-01   -0.12688E-01  1320   0.581E-01 0.143E-03
CGA:  12    -0.112815628609E+04   -0.62208E-02   -0.62194E-02  1320   0.538E-01 0.105E-03
CGA:  13    -0.112816041033E+04   -0.41242E-02   -0.41325E-02  1320   0.347E-01 0.981E-04
CGA:  14    -0.112816338309E+04   -0.29728E-02   -0.29717E-02  1320   0.190E-01-0.275E-04
CGA:  15    -0.112816542552E+04   -0.20424E-02   -0.20422E-02  1320   0.114E-01 0.133E-04
CGA:  16    -0.112816722620E+04   -0.18007E-02   -0.17992E-02  1320   0.964E-02 0.203E-04
CGA:  17    -0.112816802154E+04   -0.79534E-03   -0.79527E-03  1320   0.707E-02-0.253E-05
CGA:  18    -0.112816856511E+04   -0.54357E-03   -0.54386E-03  1320   0.416E-02 0.405E-05
CGA:  19    -0.112816901028E+04   -0.44517E-03   -0.44519E-03  1320   0.279E-02-0.135E-05
CGA:  20    -0.112816929079E+04   -0.28051E-03   -0.28051E-03  1320   0.144E-02 0.322E-06
CGA:  21    -0.112816945998E+04   -0.16919E-03   -0.16921E-03  1320   0.132E-02-0.146E-05
CGA:  22    -0.112816959329E+04   -0.13332E-03   -0.13332E-03  1320   0.977E-03-0.323E-05
CGA:  23    -0.112816967317E+04   -0.79882E-04   -0.79873E-04  1320   0.732E-03-0.463E-06
CGA:  24    -0.112816974249E+04   -0.69314E-04   -0.69316E-04  1320   0.545E-03 0.349E-06
CGA:  25    -0.112816980217E+04   -0.59688E-04   -0.59702E-04  1320   0.277E-03-0.134E-05
CGA:  26    -0.112816983801E+04   -0.35839E-04   -0.35915E-04  1320   0.216E-03-0.253E-05
CGA:  27    -0.112816986291E+04   -0.24896E-04   -0.24926E-04  1320   0.154E-03-0.199E-05
CGA:  28    -0.112816987449E+04   -0.11577E-04   -0.11565E-04  1320   0.126E-03-0.488E-06
CGA:  29    -0.112816988684E+04   -0.12352E-04   -0.12352E-04  1320   0.762E-04-0.179E-06
CGA:  30    -0.112816989680E+04   -0.99640E-05   -0.99448E-05  1320   0.562E-04 0.591E-06
  27 F= -.11281699E+04 E0= -.11281448E+04  d E =0.477988E+00  mag=    19.9981
       N       E                     dE             d eps       ncg     rms          ort
SDA:   1    -0.112494326043E+04    0.32266E+01    0.00000E+00  1320   0.158E+02 0.000E+00
CGA:   2    -0.112693019109E+04   -0.19869E+01   -0.19882E+01  1320   0.804E+01-0.367E-01
CGA:   3    -0.112744780576E+04   -0.51761E+00   -0.51928E+00  1320   0.540E+01 0.143E-01
CGA:   4    -0.112814975455E+04   -0.70195E+00   -0.70159E+00  1320   0.375E+01 0.658E-02
CGA:   5    -0.112839600807E+04   -0.24625E+00   -0.24272E+00  1320   0.881E+00 0.998E-02
CGA:   6    -0.112847255851E+04   -0.76550E-01   -0.76596E-01  1320   0.379E+00 0.109E-02
CGA:   7    -0.112850627054E+04   -0.33712E-01   -0.33725E-01  1320   0.178E+00 0.466E-03
CGA:   8    -0.112851996992E+04   -0.13699E-01   -0.13698E-01  1320   0.878E-01 0.331E-04
CGA:   9    -0.112852613327E+04   -0.61634E-02   -0.61639E-02  1320   0.370E-01 0.194E-04
CGA:  10    -0.112853035330E+04   -0.42200E-02   -0.42201E-02  1320   0.184E-01 0.650E-05
CGA:  11    -0.112853237347E+04   -0.20202E-02   -0.20193E-02  1320   0.122E-01 0.496E-04
CGA:  12    -0.112853340646E+04   -0.10330E-02   -0.10332E-02  1320   0.881E-02 0.106E-04
CGA:  13    -0.112853425012E+04   -0.84366E-03   -0.84367E-03  1320   0.579E-02 0.250E-05
CGA:  14    -0.112853475316E+04   -0.50304E-03   -0.50308E-03  1320   0.272E-02 0.581E-06
CGA:  15    -0.112853512263E+04   -0.36946E-03   -0.36944E-03  1320   0.256E-02-0.707E-07
CGA:  16    -0.112853537781E+04   -0.25519E-03   -0.25519E-03  1320   0.185E-02-0.188E-05
CGA:  17    -0.112853553018E+04   -0.15237E-03   -0.15235E-03  1320   0.105E-02-0.188E-05
CGA:  18    -0.112853563322E+04   -0.10304E-03   -0.10304E-03  1320   0.823E-03 0.328E-06
CGA:  19    -0.112853571443E+04   -0.81202E-04   -0.81202E-04  1320   0.383E-03-0.148E-05
CGA:  20    -0.112853575623E+04   -0.41800E-04   -0.41816E-04  1320   0.281E-03-0.160E-05
CGA:  21    -0.112853578529E+04   -0.29067E-04   -0.29069E-04  1320   0.240E-03-0.506E-06
CGA:  22    -0.112853580511E+04   -0.19818E-04   -0.19822E-04  1320   0.151E-03 0.143E-06
CGA:  23    -0.112853582202E+04   -0.16915E-04   -0.16922E-04  1320   0.110E-03-0.644E-06
CGA:  24    -0.112853583569E+04   -0.13669E-04   -0.13673E-04  1320   0.844E-04-0.194E-06
CGA:  25    -0.112853584356E+04   -0.78703E-05   -0.78723E-05  1320   0.528E-04 0.265E-06
  28 F= -.11285358E+04 E0= -.11285115E+04  d E =-.365947E+00  mag=    19.9979
       N       E                     dE             d eps       ncg     rms          ort
SDA:   1    -0.112804030961E+04    0.49553E+00    0.00000E+00  1320   0.255E+01 0.000E+00
CGA:   2    -0.112833273027E+04   -0.29242E+00   -0.29236E+00  1320   0.174E+01 0.262E-02
CGA:   3    -0.112843021313E+04   -0.97483E-01   -0.97209E-01  1320   0.727E+00 0.303E-02
CGA:   4    -0.112854637992E+04   -0.11617E+00   -0.11598E+00  1320   0.642E+00 0.267E-02
CGA:   5    -0.112858918434E+04   -0.42804E-01   -0.42528E-01  1320   0.132E+00 0.342E-03
CGA:   6    -0.112860089610E+04   -0.11712E-01   -0.11715E-01  1320   0.566E-01 0.130E-03
CGA:   7    -0.112860587372E+04   -0.49776E-02   -0.49782E-02  1320   0.274E-01 0.289E-04
CGA:   8    -0.112860794745E+04   -0.20737E-02   -0.20734E-02  1320   0.130E-01 0.298E-05
CGA:   9    -0.112860891840E+04   -0.97095E-03   -0.97076E-03  1320   0.583E-02-0.207E-05
CGA:  10    -0.112860954379E+04   -0.62539E-03   -0.62532E-03  1320   0.306E-02 0.488E-05
CGA:  11    -0.112860984675E+04   -0.30296E-03   -0.30296E-03  1320   0.168E-02 0.138E-05
CGA:  12    -0.112861002884E+04   -0.18209E-03   -0.18207E-03  1320   0.129E-02 0.182E-05
CGA:  13    -0.112861013570E+04   -0.10686E-03   -0.10685E-03  1320   0.877E-03 0.781E-08
CGA:  14    -0.112861021131E+04   -0.75609E-04   -0.75612E-04  1320   0.397E-03 0.189E-06
CGA:  15    -0.112861026796E+04   -0.56649E-04   -0.56643E-04  1320   0.350E-03 0.132E-06
CGA:  16    -0.112861030790E+04   -0.39944E-04   -0.39934E-04  1320   0.257E-03 0.666E-06
CGA:  17    -0.112861032872E+04   -0.20823E-04   -0.20832E-04  1320   0.163E-03 0.447E-06
CGA:  18    -0.112861034497E+04   -0.16248E-04   -0.16248E-04  1320   0.125E-03 0.700E-06
CGA:  19    -0.112861035713E+04   -0.12160E-04   -0.12160E-04  1320   0.640E-04 0.150E-07
CGA:  20    -0.112861036419E+04   -0.70541E-05   -0.70569E-05  1320   0.472E-04-0.249E-06
  29 F= -.11286104E+04 E0= -.11285863E+04  d E =-.745206E-01  mag=    19.9978
       N       E                     dE             d eps       ncg     rms          ort
SDA:   1    -0.112723232644E+04    0.13780E+01    0.00000E+00  1320   0.622E+01 0.000E+00
CGA:   2    -0.112804523265E+04   -0.81291E+00   -0.81359E+00  1320   0.250E+01-0.155E-01
CGA:   3    -0.112827810615E+04   -0.23287E+00   -0.23340E+00  1320   0.203E+01 0.294E-01
CGA:   4    -0.112853964613E+04   -0.26154E+00   -0.26215E+00  1320   0.126E+01-0.166E-01
CGA:   5    -0.112860593874E+04   -0.66293E-01   -0.67350E-01  1320   0.308E+00-0.796E-02
CGA:   6    -0.112863073533E+04   -0.24797E-01   -0.24847E-01  1320   0.141E+00 0.767E-03
CGA:   7    -0.112864279835E+04   -0.12063E-01   -0.12062E-01  1320   0.558E-01-0.232E-04
CGA:   8    -0.112864787310E+04   -0.50748E-02   -0.50734E-02  1320   0.221E-01-0.746E-04
CGA:   9    -0.112865019301E+04   -0.23199E-02   -0.23198E-02  1320   0.137E-01 0.103E-04
CGA:  10    -0.112865127716E+04   -0.10842E-02   -0.10847E-02  1320   0.827E-02 0.110E-04
CGA:  11    -0.112865193702E+04   -0.65986E-03   -0.65990E-03  1320   0.387E-02 0.248E-05
CGA:  12    -0.112865243962E+04   -0.50260E-03   -0.50241E-03  1320   0.266E-02 0.548E-05
CGA:  13    -0.112865271229E+04   -0.27267E-03   -0.27267E-03  1320   0.145E-02 0.390E-06
CGA:  14    -0.112865286028E+04   -0.14799E-03   -0.14798E-03  1320   0.119E-02 0.634E-06
CGA:  15    -0.112865296940E+04   -0.10913E-03   -0.10913E-03  1320   0.978E-03-0.976E-07
CGA:  16    -0.112865306793E+04   -0.98522E-04   -0.98518E-04  1320   0.512E-03 0.118E-05
CGA:  17    -0.112865312109E+04   -0.53165E-04   -0.53160E-04  1320   0.349E-03 0.882E-06
CGA:  18    -0.112865316409E+04   -0.43004E-04   -0.42970E-04  1320   0.258E-03 0.129E-05
CGA:  19    -0.112865318657E+04   -0.22473E-04   -0.22470E-04  1320   0.159E-03-0.134E-06
CGA:  20    -0.112865320171E+04   -0.15140E-04   -0.15139E-04  1320   0.124E-03-0.379E-06
CGA:  21    -0.112865321385E+04   -0.12146E-04   -0.12145E-04  1320   0.911E-04-0.231E-06
CGA:  22    -0.112865322340E+04   -0.95432E-05   -0.95419E-05  1320   0.520E-04 0.286E-06
  30 F= -.11286532E+04 E0= -.11286294E+04  d E =-.428592E-01  mag=    19.9977
       N       E                     dE             d eps       ncg     rms          ort
SDA:   1    -0.112861971088E+04    0.33503E-01    0.00000E+00  1320   0.191E+00 0.000E+00
CGA:   2    -0.112863692820E+04   -0.17217E-01   -0.17223E-01  1320   0.138E+00 0.205E-03
CGA:   3    -0.112864556285E+04   -0.86347E-02   -0.86440E-02  1320   0.495E-01 0.559E-05
CGA:   4    -0.112865158295E+04   -0.60201E-02   -0.60206E-02  1320   0.472E-01-0.770E-05
CGA:   5    -0.112865618884E+04   -0.46059E-02   -0.46059E-02  1320   0.872E-02 0.115E-05
CGA:   6    -0.112865697117E+04   -0.78234E-03   -0.78238E-03  1320   0.404E-02 0.198E-05
CGA:   7    -0.112865731249E+04   -0.34132E-03   -0.34134E-03  1320   0.214E-02 0.326E-06
CGA:   8    -0.112865746546E+04   -0.15296E-03   -0.15291E-03  1320   0.800E-03-0.541E-06
CGA:   9    -0.112865753245E+04   -0.66993E-04   -0.67009E-04  1320   0.437E-03 0.116E-05
CGA:  10    -0.112865757342E+04   -0.40973E-04   -0.40976E-04  1320   0.221E-03 0.677E-06
CGA:  11    -0.112865759730E+04   -0.23878E-04   -0.23871E-04  1320   0.115E-03 0.658E-06
CGA:  12    -0.112865761040E+04   -0.13095E-04   -0.13090E-04  1320   0.899E-04 0.321E-06
CGA:  13    -0.112865761842E+04   -0.80294E-05   -0.80316E-05  1320   0.678E-04 0.194E-06
  31 F= -.11286576E+04 E0= -.11286338E+04  d E =-.439503E-02  mag=    19.9977
       N       E                     dE             d eps       ncg     rms          ort
SDA:   1    -0.112858849473E+04    0.69116E-01    0.00000E+00  1320   0.328E+00 0.000E+00
CGA:   2    -0.112862704933E+04   -0.38555E-01   -0.38564E-01  1320   0.189E+00-0.276E-03
CGA:   3    -0.112863933017E+04   -0.12281E-01   -0.12315E-01  1320   0.949E-01 0.272E-04
CGA:   4    -0.112865097571E+04   -0.11646E-01   -0.11659E-01  1320   0.974E-01-0.357E-03
CGA:   5    -0.112865774647E+04   -0.67708E-02   -0.67724E-02  1320   0.175E-01 0.172E-04
CGA:   6    -0.112865915503E+04   -0.14086E-02   -0.14093E-02  1320   0.821E-02 0.136E-04
CGA:   7    -0.112866000448E+04   -0.84945E-03   -0.84951E-03  1320   0.321E-02-0.388E-05
CGA:   8    -0.112866025062E+04   -0.24614E-03   -0.24611E-03  1320   0.128E-02-0.107E-05
CGA:   9    -0.112866037423E+04   -0.12361E-03   -0.12360E-03  1320   0.114E-02 0.171E-05
CGA:  10    -0.112866045569E+04   -0.81463E-04   -0.81484E-04  1320   0.316E-03 0.944E-06
CGA:  11    -0.112866050099E+04   -0.45304E-04   -0.45281E-04  1320   0.241E-03 0.462E-06
CGA:  12    -0.112866052986E+04   -0.28862E-04   -0.28838E-04  1320   0.178E-03 0.986E-06
CGA:  13    -0.112866054344E+04   -0.13584E-04   -0.13590E-04  1320   0.103E-03 0.262E-06
CGA:  14    -0.112866055413E+04   -0.10685E-04   -0.10689E-04  1320   0.839E-04-0.467E-06
CGA:  15    -0.112866056291E+04   -0.87861E-05   -0.87885E-05  1320   0.634E-04-0.333E-06
  32 F= -.11286606E+04 E0= -.11286367E+04  d E =-.294449E-02  mag=    19.9977
       N       E                     dE             d eps       ncg     rms          ort
SDA:   1    -0.112865537657E+04    0.51776E-02    0.00000E+00  1320   0.307E-01 0.000E+00
CGA:   2    -0.112865748099E+04   -0.21044E-02   -0.21070E-02  1320   0.203E-01 0.953E-05
CGA:   3    -0.112865917737E+04   -0.16964E-02   -0.16966E-02  1320   0.826E-02 0.105E-04
CGA:   4    -0.112865993351E+04   -0.75614E-03   -0.75609E-03  1320   0.621E-02-0.696E-05
CGA:   5    -0.112866058614E+04   -0.65262E-03   -0.65260E-03  1320   0.243E-02 0.154E-05
[...]
CGA:  20    -0.112861427697E+04   -0.20907E-04   -0.20910E-04  1320   0.168E-03 0.364E-06
CGA:  21    -0.112861429139E+04   -0.14425E-04   -0.14424E-04  1320   0.106E-03-0.189E-06
CGA:  22    -0.112861430496E+04   -0.13570E-04   -0.13573E-04  1320   0.767E-04-0.204E-06
CGA:  23    -0.112861431330E+04   -0.83424E-05   -0.83419E-05  1320   0.554E-04-0.395E-07
  96 F= -.11286143E+04 E0= -.11285906E+04  d E =-.119123E-01  mag=    19.9994
       N       E                     dE             d eps       ncg     rms          ort
SDA:   1    -0.112790525120E+04    0.70905E+00    0.00000E+00  1320   0.239E+01 0.000E+00
CGA:   2    -0.112830563763E+04   -0.40039E+00   -0.40010E+00  1320   0.211E+01 0.409E-02
CGA:   3    -0.112842879941E+04   -0.12316E+00   -0.12188E+00  1320   0.106E+01 0.867E-02
CGA:   4    -0.112855329062E+04   -0.12449E+00   -0.12452E+00  1320   0.557E+00-0.130E-02
CGA:   5    -0.112859181889E+04   -0.38528E-01   -0.38680E-01  1320   0.156E+00 0.105E-03
CGA:   6    -0.112860871600E+04   -0.16897E-01   -0.16900E-01  1320   0.948E-01-0.178E-03
CGA:   7    -0.112861686126E+04   -0.81453E-02   -0.81526E-02  1320   0.365E-01 0.170E-03
CGA:   8    -0.112861924139E+04   -0.23801E-02   -0.23794E-02  1320   0.144E-01 0.190E-04
CGA:   9    -0.112862045473E+04   -0.12133E-02   -0.12136E-02  1320   0.859E-02 0.128E-04
CGA:  10    -0.112862125990E+04   -0.80517E-03   -0.80522E-03  1320   0.493E-02 0.884E-05
CGA:  11    -0.112862171318E+04   -0.45328E-03   -0.45330E-03  1320   0.243E-02 0.294E-05
CGA:  12    -0.112862208120E+04   -0.36802E-03   -0.36795E-03  1320   0.187E-02 0.117E-05
CGA:  13    -0.112862224385E+04   -0.16264E-03   -0.16264E-03  1320   0.167E-02-0.256E-06
CGA:  14    -0.112862238408E+04   -0.14023E-03   -0.14022E-03  1320   0.858E-03-0.975E-06
CGA:  15    -0.112862250754E+04   -0.12346E-03   -0.12361E-03  1320   0.762E-03-0.321E-05
CGA:  16    -0.112862259183E+04   -0.84291E-04   -0.84289E-04  1320   0.435E-03 0.171E-06
CGA:  17    -0.112862263323E+04   -0.41393E-04   -0.41391E-04  1320   0.352E-03-0.255E-06
CGA:  18    -0.112862266142E+04   -0.28198E-04   -0.28196E-04  1320   0.189E-03-0.663E-07
CGA:  19    -0.112862268003E+04   -0.18603E-04   -0.18603E-04  1320   0.114E-03 0.318E-07
CGA:  20    -0.112862269213E+04   -0.12100E-04   -0.12103E-04  1320   0.824E-04-0.401E-06
CGA:  21    -0.112862270061E+04   -0.84855E-05   -0.84873E-05  1320   0.529E-04-0.726E-06
  97 F= -.11286227E+04 E0= -.11285989E+04  d E =-.838731E-02  mag=    19.9994
       N       E                     dE             d eps       ncg     rms          ort
SDA:   1    -0.112848284258E+04    0.13985E+00    0.00000E+00  1320   0.581E+00 0.000E+00
CGA:   2    -0.112856190271E+04   -0.79060E-01   -0.79072E-01  1320   0.616E+00-0.217E-03
CGA:   3    -0.112859226274E+04   -0.30360E-01   -0.30264E-01  1320   0.119E+00 0.113E-02
CGA:   4    -0.112860608771E+04   -0.13825E-01   -0.13823E-01  1320   0.873E-01 0.881E-04
CGA:   5    -0.112861319146E+04   -0.71037E-02   -0.71055E-02  1320   0.266E-01 0.180E-04
CGA:   6    -0.112861687662E+04   -0.36852E-02   -0.36862E-02  1320   0.185E-01-0.169E-04
CGA:   7    -0.112861838099E+04   -0.15044E-02   -0.15056E-02  1320   0.813E-02 0.202E-04
CGA:   8    -0.112861886680E+04   -0.48582E-03   -0.48598E-03  1320   0.277E-02 0.105E-05
CGA:   9    -0.112861913898E+04   -0.27217E-03   -0.27217E-03  1320   0.189E-02-0.336E-05
CGA:  10    -0.112861931318E+04   -0.17420E-03   -0.17420E-03  1320   0.108E-02-0.119E-05
CGA:  11    -0.112861943084E+04   -0.11766E-03   -0.11767E-03  1320   0.752E-03-0.310E-06
CGA:  12    -0.112861953388E+04   -0.10303E-03   -0.10310E-03  1320   0.761E-03-0.185E-05
CGA:  13    -0.112861961061E+04   -0.76730E-04   -0.76730E-04  1320   0.588E-03 0.320E-07
CGA:  14    -0.112861965225E+04   -0.41643E-04   -0.41680E-04  1320   0.330E-03 0.121E-05
CGA:  15    -0.112861970442E+04   -0.52169E-04   -0.52099E-04  1320   0.281E-03 0.121E-05
CGA:  16    -0.112861973414E+04   -0.29716E-04   -0.29714E-04  1320   0.132E-03 0.888E-06
CGA:  17    -0.112861974693E+04   -0.12796E-04   -0.12793E-04  1320   0.111E-03-0.435E-06
CGA:  18    -0.112861975705E+04   -0.10116E-04   -0.10111E-04  1320   0.823E-04-0.509E-06
CGA:  19    -0.112861976404E+04   -0.69938E-05   -0.69889E-05  1320   0.329E-04-0.303E-06
  98 F= -.11286198E+04 E0= -.11285959E+04  d E =0.293657E-02  mag=    19.9995
       N       E                     dE             d eps       ncg     rms          ort
SDA:   1    -0.112805745716E+04    0.56230E+00    0.00000E+00  1320   0.192E+01 0.000E+00
CGA:   2    -0.112844725205E+04   -0.38979E+00   -0.38993E+00  1320   0.834E+00-0.121E-02
CGA:   3    -0.112852143584E+04   -0.74184E-01   -0.74298E-01  1320   0.550E+00 0.198E-02
CGA:   4    -0.112856855919E+04   -0.47123E-01   -0.47168E-01  1320   0.349E+00 0.608E-03
CGA:   5    -0.112859085133E+04   -0.22292E-01   -0.22318E-01  1320   0.109E+00-0.610E-04
CGA:   6    -0.112860501168E+04   -0.14160E-01   -0.14168E-01  1320   0.591E-01-0.181E-03
CGA:   7    -0.112860958139E+04   -0.45697E-02   -0.45704E-02  1320   0.132E-01 0.144E-04
CGA:   8    -0.112861107503E+04   -0.14936E-02   -0.14936E-02  1320   0.936E-02 0.716E-05
CGA:   9    -0.112861180814E+04   -0.73311E-03   -0.73294E-03  1320   0.616E-02-0.327E-05
CGA:  10    -0.112861231338E+04   -0.50524E-03   -0.50521E-03  1320   0.311E-02-0.103E-05
CGA:  11    -0.112861268293E+04   -0.36955E-03   -0.36951E-03  1320   0.280E-02 0.199E-05
CGA:  12    -0.112861300533E+04   -0.32240E-03   -0.32242E-03  1320   0.193E-02-0.180E-05
CGA:  13    -0.112861319558E+04   -0.19025E-03   -0.19025E-03  1320   0.131E-02-0.354E-06
CGA:  14    -0.112861338093E+04   -0.18535E-03   -0.18515E-03  1320   0.137E-02 0.495E-05
CGA:  15    -0.112861350224E+04   -0.12130E-03   -0.12130E-03  1320   0.107E-02 0.236E-06
CGA:  16    -0.112861358900E+04   -0.86765E-04   -0.86745E-04  1320   0.521E-03-0.552E-06
CGA:  17    -0.112861365862E+04   -0.69623E-04   -0.69624E-04  1320   0.307E-03-0.278E-07
CGA:  18    -0.112861370263E+04   -0.44008E-04   -0.44056E-04  1320   0.277E-03-0.120E-05
CGA:  19    -0.112861372365E+04   -0.21015E-04   -0.21006E-04  1320   0.180E-03-0.316E-06
CGA:  20    -0.112861374185E+04   -0.18201E-04   -0.18202E-04  1320   0.141E-03 0.360E-06
CGA:  21    -0.112861375767E+04   -0.15824E-04   -0.15828E-04  1320   0.956E-04-0.484E-06
CGA:  22    -0.112861376824E+04   -0.10571E-04   -0.10573E-04  1320   0.666E-04-0.353E-06
CGA:  23    -0.112861377533E+04   -0.70879E-05   -0.70878E-05  1320   0.499E-04 0.337E-06
  99 F= -.11286138E+04 E0= -.11285900E+04  d E =0.598871E-02  mag=    19.9995
       N       E                     dE             d eps       ncg     rms          ort
SDA:   1    -0.109898526879E+04    0.29628E+02    0.00000E+00  1320   0.953E+02 0.000E+00
CGA:   2    -0.111899669381E+04   -0.20011E+02   -0.20245E+02  1320   0.665E+02-0.192E+01
CGA:   3    -0.112271627511E+04   -0.37196E+01   -0.41669E+01  1320   0.343E+02-0.751E+00
CGA:   4    -0.112582009988E+04   -0.31038E+01   -0.31113E+01  1320   0.206E+02 0.281E+00
CGA:   5    -0.112721179865E+04   -0.13917E+01   -0.13422E+01  1320   0.733E+01 0.225E+00
CGA:   6    -0.112793482148E+04   -0.72302E+00   -0.72480E+00  1320   0.418E+01 0.108E+00
CGA:   7    -0.112830202279E+04   -0.36720E+00   -0.36583E+00  1320   0.111E+01-0.191E-01
CGA:   8    -0.112839236291E+04   -0.90340E-01   -0.91284E-01  1320   0.669E+00 0.114E-01
CGA:   9    -0.112844297426E+04   -0.50611E-01   -0.50705E-01  1320   0.421E+00 0.548E-03
CGA:  10    -0.112847704975E+04   -0.34075E-01   -0.34068E-01  1320   0.209E+00-0.824E-04
CGA:  11    -0.112849831937E+04   -0.21270E-01   -0.21268E-01  1320   0.142E+00 0.603E-03
CGA:  12    -0.112851660846E+04   -0.18289E-01   -0.18278E-01  1320   0.101E+00 0.313E-03
CGA:  13    -0.112852701373E+04   -0.10405E-01   -0.10404E-01  1320   0.810E-01 0.846E-03
CGA:  14    -0.112853450375E+04   -0.74900E-02   -0.74935E-02  1320   0.750E-01 0.159E-03
CGA:  15    -0.112854138293E+04   -0.68792E-02   -0.68799E-02  1320   0.467E-01 0.300E-04
CGA:  16    -0.112854641829E+04   -0.50354E-02   -0.50333E-02  1320   0.302E-01 0.162E-03
CGA:  17    -0.112855005057E+04   -0.36323E-02   -0.36323E-02  1320   0.177E-01-0.149E-05
CGA:  18    -0.112855191772E+04   -0.18671E-02   -0.18670E-02  1320   0.973E-02 0.232E-04
CGA:  19    -0.112855299038E+04   -0.10727E-02   -0.10726E-02  1320   0.975E-02 0.428E-05
CGA:  20    -0.112855371964E+04   -0.72926E-03   -0.72893E-03  1320   0.501E-02-0.273E-05
CGA:  21    -0.112855423615E+04   -0.51651E-03   -0.51652E-03  1320   0.359E-02-0.458E-05
CGA:  22    -0.112855462761E+04   -0.39146E-03   -0.39153E-03  1320   0.249E-02-0.891E-05
CGA:  23    -0.112855494855E+04   -0.32094E-03   -0.32124E-03  1320   0.134E-02-0.108E-04
CGA:  24    -0.112855511941E+04   -0.17086E-03   -0.17090E-03  1320   0.115E-02-0.128E-05
CGA:  25    -0.112855521958E+04   -0.10018E-03   -0.10020E-03  1320   0.884E-03 0.148E-05
CGA:  26    -0.112855529669E+04   -0.77106E-04   -0.77152E-04  1320   0.486E-03 0.269E-05
CGA:  27    -0.112855534056E+04   -0.43870E-04   -0.43887E-04  1320   0.305E-03 0.144E-05
CGA:  28    -0.112855538077E+04   -0.40213E-04   -0.40211E-04  1320   0.198E-03 0.374E-07
CGA:  29    -0.112855540585E+04   -0.25080E-04   -0.25098E-04  1320   0.132E-03-0.766E-06
CGA:  30    -0.112855542221E+04   -0.16356E-04   -0.16374E-04  1320   0.142E-03-0.868E-06
CGA:  31    -0.112855543618E+04   -0.13974E-04   -0.13972E-04  1320   0.114E-03-0.255E-06
SDA:  32    -0.112855544650E+04   -0.10316E-04   -0.10315E-04  1320   0.101E-03-0.679E-07
CGA:  33    -0.112855545143E+04   -0.49375E-05   -0.49557E-05  1320   0.427E-04 0.303E-06
 100 F= -.11285555E+04 E0= -.11285322E+04  d E =0.583239E-01  mag=    19.9996
       N       E                     dE             d eps       ncg     rms          ort
SDA:   1    -0.111684976576E+04    0.11706E+02    0.00000E+00  1320   0.382E+02 0.000E+00
CGA:   2    -0.112419388390E+04   -0.73441E+01   -0.73682E+01  1320   0.240E+02-0.252E+00
CGA:   3    -0.112592074639E+04   -0.17269E+01   -0.18144E+01  1320   0.183E+02 0.291E+00
CGA:   4    -0.112744876865E+04   -0.15280E+01   -0.15156E+01  1320   0.759E+01-0.679E-01
CGA:   5    -0.112801727826E+04   -0.56851E+00   -0.56319E+00  1320   0.268E+01-0.565E-02
CGA:   6    -0.112829783511E+04   -0.28056E+00   -0.28055E+00  1320   0.179E+01 0.223E-01
CGA:   7    -0.112842869399E+04   -0.13086E+00   -0.13055E+00  1320   0.459E+00 0.110E-02
CGA:   8    -0.112846454524E+04   -0.35851E-01   -0.35844E-01  1320   0.300E+00-0.338E-04
CGA:   9    -0.112848644688E+04   -0.21902E-01   -0.22000E-01  1320   0.121E+00 0.379E-03
CGA:  10    -0.112850061138E+04   -0.14165E-01   -0.14167E-01  1320   0.677E-01-0.753E-04
CGA:  11    -0.112850760750E+04   -0.69961E-02   -0.69954E-02  1320   0.580E-01 0.208E-03
CGA:  12    -0.112851300122E+04   -0.53937E-02   -0.53943E-02  1320   0.405E-01 0.471E-04
CGA:  13    -0.112851645956E+04   -0.34583E-02   -0.34622E-02  1320   0.267E-01 0.100E-03
CGA:  14    -0.112851945540E+04   -0.29958E-02   -0.29950E-02  1320   0.185E-01 0.501E-04
CGA:  15    -0.112852195062E+04   -0.24952E-02   -0.24956E-02  1320   0.158E-01-0.815E-05
CGA:  16    -0.112852328403E+04   -0.13334E-02   -0.13341E-02  1320   0.117E-01 0.107E-04
CGA:  17    -0.112852437445E+04   -0.10904E-02   -0.10908E-02  1320   0.643E-02 0.188E-04
CGA:  18    -0.112852501671E+04   -0.64225E-03   -0.64225E-03  1320   0.409E-02-0.732E-07
CGA:  19    -0.112852539944E+04   -0.38273E-03   -0.38281E-03  1320   0.238E-02 0.645E-05
CGA:  20    -0.112852568344E+04   -0.28400E-03   -0.28397E-03  1320   0.199E-02 0.161E-05
CGA:  21    -0.112852583368E+04   -0.15024E-03   -0.15023E-03  1320   0.125E-02-0.361E-06
CGA:  22    -0.112852598432E+04   -0.15064E-03   -0.15073E-03  1320   0.845E-03-0.385E-05
CGA:  23    -0.112852607983E+04   -0.95510E-04   -0.95521E-04  1320   0.628E-03-0.895E-06
CGA:  24    -0.112852613938E+04   -0.59548E-04   -0.59539E-04  1320   0.433E-03-0.126E-05
CGA:  25    -0.112852617802E+04   -0.38637E-04   -0.38637E-04  1320   0.309E-03-0.425E-08
CGA:  26    -0.112852620925E+04   -0.31228E-04   -0.31228E-04  1320   0.167E-03 0.492E-06
CGA:  27    -0.112852622700E+04   -0.17750E-04   -0.17752E-04  1320   0.108E-03-0.308E-06
CGA:  28    -0.112852623856E+04   -0.11565E-04   -0.11571E-04  1320   0.105E-03-0.105E-05
CGA:  29    -0.112852624729E+04   -0.87283E-05   -0.87179E-05  1320   0.521E-04-0.601E-06
 101 F= -.11285262E+04 E0= -.11285033E+04  d E =0.292041E-01  mag=    19.9996
       N       E                     dE             d eps       ncg     rms          ort
SDA:   1    -0.111243555390E+04    0.16091E+02    0.00000E+00  1320   0.547E+02 0.000E+00
CGA:   2    -0.112311203928E+04   -0.10676E+02   -0.10656E+02  1320   0.273E+02 0.249E+00
CGA:   3    -0.112545552275E+04   -0.23435E+01   -0.22967E+01  1320   0.208E+02-0.548E+00
CGA:   4    -0.112734218378E+04   -0.18867E+01   -0.18857E+01  1320   0.824E+01-0.211E-01
CGA:   5    -0.112785601395E+04   -0.51383E+00   -0.51176E+00  1320   0.429E+01 0.307E-01
CGA:   6    -0.112827846361E+04   -0.42245E+00   -0.42191E+00  1320   0.214E+01-0.606E-01
CGA:   7    -0.112845242168E+04   -0.17396E+00   -0.17528E+00  1320   0.516E+00 0.198E-01
CGA:   8    -0.112850439149E+04   -0.51970E-01   -0.51958E-01  1320   0.252E+00-0.516E-02
CGA:   9    -0.112853201521E+04   -0.27624E-01   -0.27610E-01  1320   0.168E+00 0.796E-03
CGA:  10    -0.112854430966E+04   -0.12294E-01   -0.12324E-01  1320   0.110E+00 0.152E-03
CGA:  11    -0.112855419665E+04   -0.98870E-02   -0.98932E-02  1320   0.694E-01 0.277E-03
CGA:  12    -0.112856305320E+04   -0.88565E-02   -0.88485E-02  1320   0.517E-01 0.227E-03
CGA:  13    -0.112856854422E+04   -0.54910E-02   -0.54895E-02  1320   0.307E-01 0.180E-03
CGA:  14    -0.112857241266E+04   -0.38684E-02   -0.38653E-02  1320   0.337E-01 0.865E-04
CGA:  15    -0.112857595346E+04   -0.35408E-02   -0.35407E-02  1320   0.230E-01 0.137E-04
CGA:  16    -0.112857769021E+04   -0.17367E-02   -0.17376E-02  1320   0.133E-01 0.105E-04
CGA:  17    -0.112857903152E+04   -0.13413E-02   -0.13413E-02  1320   0.953E-02 0.223E-04
CGA:  18    -0.112858007020E+04   -0.10387E-02   -0.10387E-02  1320   0.474E-02 0.276E-05
CGA:  19    -0.112858061802E+04   -0.54781E-03   -0.54777E-03  1320   0.321E-02 0.282E-05
CGA:  20    -0.112858097893E+04   -0.36091E-03   -0.36097E-03  1320   0.346E-02-0.539E-05
CGA:  21    -0.112858124113E+04   -0.26221E-03   -0.26189E-03  1320   0.166E-02-0.840E-05
CGA:  22    -0.112858144613E+04   -0.20500E-03   -0.20511E-03  1320   0.128E-02-0.500E-05
CGA:  23    -0.112858157648E+04   -0.13035E-03   -0.13035E-03  1320   0.822E-03-0.109E-05
CGA:  24    -0.112858167811E+04   -0.10163E-03   -0.10164E-03  1320   0.593E-03-0.608E-06
CGA:  25    -0.112858172504E+04   -0.46927E-04   -0.46936E-04  1320   0.405E-03 0.621E-06
CGA:  26    -0.112858176376E+04   -0.38719E-04   -0.38730E-04  1320   0.234E-03 0.161E-05
CGA:  27    -0.112858178745E+04   -0.23693E-04   -0.23693E-04  1320   0.161E-03 0.108E-06
CGA:  28    -0.112858180527E+04   -0.17823E-04   -0.17819E-04  1320   0.102E-03 0.421E-06
CGA:  29    -0.112858181642E+04   -0.11144E-04   -0.11141E-04  1320   0.697E-04 0.310E-06
CGA:  30    -0.112858182341E+04   -0.69923E-05   -0.69923E-05  1320   0.787E-04 0.950E-07
 102 F= -.11285818E+04 E0= -.11285582E+04  d E =-.555761E-01  mag=    19.9995
       N       E                     dE             d eps       ncg     rms          ort
SDA:   1    -0.112730960506E+04    0.12722E+01    0.00000E+00  1320   0.503E+01 0.000E+00
CGA:   2    -0.112808000376E+04   -0.77040E+00   -0.77083E+00  1320   0.244E+01-0.693E-02
CGA:   3    -0.112826873611E+04   -0.18873E+00   -0.18908E+00  1320   0.191E+01 0.220E-02
CGA:   4    -0.112844334112E+04   -0.17461E+00   -0.17476E+00  1320   0.107E+01 0.530E-02
CGA:   5    -0.112851542515E+04   -0.72084E-01   -0.71927E-01  1320   0.288E+00-0.124E-03
CGA:   6    -0.112854962482E+04   -0.34200E-01   -0.34184E-01  1320   0.157E+00 0.585E-03
CGA:   7    -0.112856491075E+04   -0.15286E-01   -0.15285E-01  1320   0.522E-01-0.599E-04
CGA:   8    -0.112856835545E+04   -0.34447E-02   -0.34460E-02  1320   0.258E-01 0.436E-07
CGA:   9    -0.112857051247E+04   -0.21570E-02   -0.21560E-02  1320   0.146E-01-0.197E-04
CGA:  10    -0.112857186220E+04   -0.13497E-02   -0.13498E-02  1320   0.663E-02 0.676E-05
CGA:  11    -0.112857265006E+04   -0.78787E-03   -0.78785E-03  1320   0.530E-02-0.521E-06
CGA:  12    -0.112857319668E+04   -0.54661E-03   -0.54662E-03  1320   0.405E-02-0.142E-05
CGA:  13    -0.112857358713E+04   -0.39045E-03   -0.39046E-03  1320   0.255E-02 0.201E-05
CGA:  14    -0.112857380490E+04   -0.21777E-03   -0.21783E-03  1320   0.210E-02 0.276E-05
CGA:  15    -0.112857403008E+04   -0.22518E-03   -0.22517E-03  1320   0.129E-02 0.207E-05
CGA:  16    -0.112857419490E+04   -0.16482E-03   -0.16472E-03  1320   0.756E-03 0.309E-05
CGA:  17    -0.112857427159E+04   -0.76685E-04   -0.76685E-04  1320   0.637E-03 0.247E-06
CGA:  18    -0.112857432715E+04   -0.55569E-04   -0.55582E-04  1320   0.432E-03 0.850E-06
CGA:  19    -0.112857436300E+04   -0.35841E-04   -0.35846E-04  1320   0.193E-03 0.288E-06
CGA:  20    -0.112857438833E+04   -0.25330E-04   -0.25340E-04  1320   0.163E-03-0.295E-06
CGA:  21    -0.112857440711E+04   -0.18788E-04   -0.18800E-04  1320   0.114E-03-0.802E-06
CGA:  22    -0.112857441658E+04   -0.94684E-05   -0.94622E-05  1320   0.904E-04-0.349E-06
 103 F= -.11285744E+04 E0= -.11285510E+04  d E =0.740683E-02  mag=    19.9995
       N       E                     dE             d eps       ncg     rms          ort
SDA:   1    -0.112618051833E+04    0.23939E+01    0.00000E+00  1320   0.806E+01 0.000E+00
CGA:   2    -0.112768543474E+04   -0.15049E+01   -0.15086E+01  1320   0.666E+01-0.388E-01
CGA:   3    -0.112805163812E+04   -0.36620E+00   -0.37871E+00  1320   0.280E+01-0.869E-01
CGA:   4    -0.112832389738E+04   -0.27226E+00   -0.27224E+00  1320   0.189E+01-0.166E-02
CGA:   5    -0.112846061974E+04   -0.13672E+00   -0.13609E+00  1320   0.576E+00-0.135E-02
CGA:   6    -0.112852057000E+04   -0.59950E-01   -0.59936E-01  1320   0.366E+00 0.230E-02
CGA:   7    -0.112855234667E+04   -0.31777E-01   -0.31705E-01  1320   0.105E+00-0.158E-02
CGA:   8    -0.112855989510E+04   -0.75484E-02   -0.75613E-02  1320   0.530E-01 0.641E-04
CGA:   9    -0.112856407619E+04   -0.41811E-02   -0.41862E-02  1320   0.311E-01 0.677E-04
CGA:  10    -0.112856708727E+04   -0.30111E-02   -0.30111E-02  1320   0.172E-01-0.712E-05
CGA:  11    -0.112856891071E+04   -0.18234E-02   -0.18233E-02  1320   0.105E-01 0.148E-04
CGA:  12    -0.112857032863E+04   -0.14179E-02   -0.14175E-02  1320   0.100E-01 0.103E-04
CGA:  13    -0.112857118308E+04   -0.85444E-03   -0.85472E-03  1320   0.754E-02 0.869E-05
CGA:  14    -0.112857183927E+04   -0.65619E-03   -0.65621E-03  1320   0.458E-02 0.102E-05
CGA:  15    -0.112857247857E+04   -0.63930E-03   -0.63915E-03  1320   0.381E-02 0.380E-05
CGA:  16    -0.112857288286E+04   -0.40429E-03   -0.40430E-03  1320   0.248E-02-0.241E-05
CGA:  17    -0.112857309759E+04   -0.21472E-03   -0.21470E-03  1320   0.158E-02-0.144E-05
CGA:  18    -0.112857323663E+04   -0.13905E-03   -0.13904E-03  1320   0.995E-03-0.354E-06
CGA:  19    -0.112857333218E+04   -0.95546E-04   -0.95547E-04  1320   0.641E-03-0.274E-06
CGA:  20    -0.112857339420E+04   -0.62022E-04   -0.62019E-04  1320   0.336E-03-0.101E-05
CGA:  21    -0.112857344052E+04   -0.46321E-04   -0.46304E-04  1320   0.296E-03 0.434E-06
CGA:  22    -0.112857346376E+04   -0.23233E-04   -0.23224E-04  1320   0.225E-03-0.307E-06
CGA:  23    -0.112857348747E+04   -0.23710E-04   -0.23712E-04  1320   0.123E-03-0.419E-06
CGA:  24    -0.112857350156E+04   -0.14098E-04   -0.14098E-04  1320   0.892E-04 0.391E-07
CGA:  25    -0.112857351105E+04   -0.94850E-05   -0.94826E-05  1320   0.674E-04 0.500E-06
 104 F= -.11285735E+04 E0= -.11285502E+04  d E =0.905533E-03  mag=    19.9996
