       N       E                     dE             d eps       ncg     rms          ort
DAV:   1     0.964939209699E+04    0.96494E+04   -0.32114E+05  3248   0.180E+03
DAV:   2     0.103111482468E+04   -0.86183E+04   -0.81879E+04  3248   0.554E+02
DAV:   3    -0.496203978874E+03   -0.15273E+04   -0.14168E+04  3248   0.227E+02
DAV:   4    -0.690577128166E+03   -0.19437E+03   -0.18702E+03  3248   0.921E+01
DAV:   5    -0.700771585038E+03   -0.10194E+02   -0.98811E+01  3248   0.256E+01
SDA:   6    -0.192127282505E+03    0.50864E+03   -0.98811E+01  3248   0.297E+04 0.000E+00
CGA:   7    -0.490428286190E+03   -0.29830E+03   -0.34464E+03  3248   0.663E+03 0.184E+02
CGA:   8    -0.523261199791E+03   -0.32833E+02   -0.37774E+02  3248   0.161E+03 0.258E+02
CGA:   9    -0.541709118092E+03   -0.18448E+02   -0.14581E+02  3248   0.107E+03-0.251E+02
CGA:  10    -0.546948501662E+03   -0.52394E+01   -0.72903E+01  3248   0.188E+03-0.148E+02
CGA:  11    -0.549674488289E+03   -0.27260E+01   -0.74078E+01  3248   0.980E+02-0.700E+02
CGA:  12    -0.552552968544E+03   -0.28785E+01   -0.35711E+01  3248   0.156E+03-0.492E+02
CGA:  13    -0.555167204580E+03   -0.26142E+01   -0.11572E+02  3248   0.148E+03-0.314E+02
CGA:  14    -0.562647388366E+03   -0.74802E+01   -0.68115E+01  3248   0.622E+02-0.600E+02
CGA:  15    -0.564804167952E+03   -0.21568E+01   -0.21364E+01  3248   0.250E+02 0.309E+01
CGA:  16    -0.565113713181E+03   -0.30955E+00   -0.14545E+01  3248   0.575E+02-0.178E+02
CGA:  17    -0.565346250024E+03   -0.23254E+00   -0.27145E+01  3248   0.449E+02-0.328E+02
CGA:  18    -0.565606730585E+03   -0.26048E+00   -0.20373E+01  3248   0.520E+02-0.416E+02
CGA:  19    -0.566308289297E+03   -0.70156E+00   -0.19218E+01  3248   0.342E+02-0.370E+02
CGA:  20    -0.565961654141E+03    0.34664E+00   -0.17157E+01  3248   0.452E+02-0.278E+02
CGA:  21    -0.567068359646E+03   -0.11067E+01   -0.14663E+01  3248   0.187E+02-0.303E+02
CGA:  22    -0.567161828931E+03   -0.93469E-01   -0.79356E+00  3248   0.200E+02-0.146E+02
CGA:  23    -0.567559245646E+03   -0.39742E+00   -0.63400E+00  3248   0.737E+01-0.907E+01
CGA:  24    -0.568086673968E+03   -0.52743E+00   -0.51472E+00  3248   0.404E+01 0.590E+00
CGA:  25    -0.568300371589E+03   -0.21370E+00   -0.21935E+00  3248   0.242E+01-0.105E+00
CGA:  26    -0.568825368344E+03   -0.52500E+00   -0.45600E+00  3248   0.117E+01 0.735E+00
CGA:  27    -0.568918227763E+03   -0.92859E-01   -0.88929E-01  3248   0.560E+00 0.304E-01
CGA:  28    -0.569074769095E+03   -0.15654E+00   -0.13902E+00  3248   0.206E+00 0.125E+00
CGA:  29    -0.569095915610E+03   -0.21147E-01   -0.21174E-01  3248   0.149E+00-0.183E-03
CGA:  30    -0.569136173321E+03   -0.40258E-01   -0.38474E-01  3248   0.126E+00 0.123E-01
CGA:  31    -0.569153252951E+03   -0.17080E-01   -0.17079E-01  3248   0.806E-01-0.111E-02
CGA:  32    -0.569164375536E+03   -0.11123E-01   -0.11108E-01  3248   0.631E-01 0.528E-03
CGA:  33    -0.569172748703E+03   -0.83732E-02   -0.83768E-02  3248   0.505E-01-0.453E-03
CGA:  34    -0.569181320880E+03   -0.85722E-02   -0.86160E-02  3248   0.283E-01-0.836E-03
CGA:  35    -0.569184924763E+03   -0.36039E-02   -0.36044E-02  3248   0.183E-01-0.346E-03
CGA:  36    -0.569187367763E+03   -0.24430E-02   -0.24441E-02  3248   0.135E-01-0.181E-03
CGA:  37    -0.569189290831E+03   -0.19231E-02   -0.19259E-02  3248   0.110E-01-0.174E-03
CGA:  38    -0.569191131404E+03   -0.18406E-02   -0.18465E-02  3248   0.687E-02-0.138E-03
CGA:  39    -0.569191981053E+03   -0.84965E-03   -0.84961E-03  3248   0.542E-02-0.452E-07
CGA:  40    -0.569192717453E+03   -0.73640E-03   -0.73598E-03  3248   0.286E-02 0.752E-04
CGA:  41    -0.569193201205E+03   -0.48375E-03   -0.48223E-03  3248   0.244E-02 0.540E-04
CGA:  42    -0.569193573792E+03   -0.37259E-03   -0.37113E-03  3248   0.158E-02 0.859E-04
CGA:  43    -0.569193756768E+03   -0.18298E-03   -0.18398E-03  3248   0.970E-03 0.455E-04
CGA:  44    -0.569193934624E+03   -0.17786E-03   -0.17583E-03  3248   0.721E-03 0.466E-04
CGA:  45    -0.569194062016E+03   -0.12739E-03   -0.12641E-03  3248   0.804E-03 0.302E-04
CGA:  46    -0.569194192025E+03   -0.13001E-03   -0.12967E-03  3248   0.568E-03 0.185E-04
CGA:  47    -0.569194280917E+03   -0.88892E-04   -0.88952E-04  3248   0.553E-03-0.399E-05
CGA:  48    -0.569194380022E+03   -0.99105E-04   -0.10014E-03  3248   0.465E-03-0.234E-04
CGA:  49    -0.569194451713E+03   -0.71691E-04   -0.72146E-04  3248   0.443E-03-0.208E-04
CGA:  50    -0.569194512281E+03   -0.60568E-04   -0.60589E-04  3248   0.323E-03-0.145E-04
CGA:  51    -0.569194560396E+03   -0.48115E-04   -0.48187E-04  3248   0.202E-03-0.581E-05
CGA:  52    -0.569194599029E+03   -0.38633E-04   -0.38747E-04  3248   0.230E-03-0.221E-05
SDA:  53    -0.569194628562E+03   -0.29533E-04   -0.29488E-04  3248   0.169E-03-0.268E-05
CGA:  54    -0.569194641511E+03   -0.12948E-04   -0.12862E-04  3248   0.860E-04-0.128E-05
CGA:  55    -0.569194659517E+03   -0.18006E-04   -0.18244E-04  3248   0.113E-03-0.323E-05
CGA:  56    -0.569194682144E+03   -0.22627E-04   -0.22645E-04  3248   0.109E-03-0.276E-06
CGA:  57    -0.569194704500E+03   -0.22356E-04   -0.21920E-04  3248   0.869E-04 0.800E-05
CGA:  58    -0.569194715566E+03   -0.11066E-04   -0.11243E-04  3248   0.537E-04 0.601E-05
CGA:  59    -0.569194724327E+03   -0.87612E-05   -0.87434E-05  3248   0.403E-04 0.530E-05
CGA:  60    -0.569194734651E+03   -0.10324E-04   -0.10149E-04  3248   0.604E-04 0.219E-05
CGA:  61    -0.569194751074E+03   -0.16422E-04   -0.16786E-04  3248   0.597E-04-0.329E-05
CGA:  62    -0.569194765040E+03   -0.13966E-04   -0.15136E-04  3248   0.120E-03-0.107E-04
CGA:  63    -0.569194776671E+03   -0.11632E-04   -0.11092E-04  3248   0.663E-04-0.105E-04
CGA:  64    -0.569194786274E+03   -0.96030E-05   -0.95758E-05  3248   0.629E-04-0.849E-05
CGA:  65    -0.569194796889E+03   -0.10614E-04   -0.10908E-04  3248   0.766E-04-0.779E-05
CGA:  66    -0.569194804525E+03   -0.76366E-05   -0.75102E-05  3248   0.534E-04-0.249E-05
   1 F= -.56919480E+03 E0= -.56918099E+03  d E =-.569195E+03  mag=    70.0000
       N       E                     dE             d eps       ncg     rms          ort
SDA:   1    -0.569196276160E+03   -0.14793E-02    0.00000E+00  3248   0.234E-01 0.000E+00
CGA:   2    -0.569198052995E+03   -0.17768E-02   -0.17743E-02  3248   0.110E-01 0.343E-04
CGA:   3    -0.569199496408E+03   -0.14434E-02   -0.14433E-02  3248   0.498E-02 0.545E-05
CGA:   4    -0.569200043958E+03   -0.54755E-03   -0.54717E-03  3248   0.201E-02-0.908E-05
CGA:   5    -0.569200294798E+03   -0.25084E-03   -0.25052E-03  3248   0.118E-02-0.114E-04
CGA:   6    -0.569200415747E+03   -0.12095E-03   -0.12076E-03  3248   0.378E-03-0.372E-05
CGA:   7    -0.569200452789E+03   -0.37042E-04   -0.37162E-04  3248   0.147E-03 0.224E-05
CGA:   8    -0.569200473502E+03   -0.20713E-04   -0.20740E-04  3248   0.532E-04 0.419E-05
CGA:   9    -0.569200482264E+03   -0.87614E-05   -0.87259E-05  3248   0.531E-04 0.269E-05
   2 F= -.56920048E+03 E0= -.56918669E+03  d E =-.567774E-02  mag=    70.0000
       N       E                     dE             d eps       ncg     rms          ort
SDA:   1    -0.543847032182E+03    0.25353E+02    0.00000E+00  3248   0.937E+02 0.000E+00
CGA:   2    -0.558152116914E+03   -0.14305E+02   -0.14286E+02  3248   0.550E+02 0.150E+01
CGA:   3    -0.564812303705E+03   -0.66602E+01   -0.66676E+01  3248   0.221E+02-0.142E+00
CGA:   4    -0.567199455550E+03   -0.23872E+01   -0.22474E+01  3248   0.126E+02-0.915E+00
CGA:   5    -0.568768129828E+03   -0.15687E+01   -0.15624E+01  3248   0.392E+01-0.219E+00
CGA:   6    -0.569144853093E+03   -0.37672E+00   -0.36853E+00  3248   0.198E+01-0.388E-01
CGA:   7    -0.569353256848E+03   -0.20840E+00   -0.20988E+00  3248   0.456E+00 0.906E-02
CGA:   8    -0.569407913271E+03   -0.54656E-01   -0.54687E-01  3248   0.421E+00 0.606E-03
CGA:   9    -0.569447758876E+03   -0.39846E-01   -0.40466E-01  3248   0.133E+00 0.138E-02
CGA:  10    -0.569468361746E+03   -0.20603E-01   -0.20600E-01  3248   0.815E-01 0.151E-03
CGA:  11    -0.569478946184E+03   -0.10584E-01   -0.10598E-01  3248   0.567E-01 0.112E-02
CGA:  12    -0.569486831336E+03   -0.78852E-02   -0.78848E-02  3248   0.426E-01 0.996E-04
CGA:  13    -0.569492059288E+03   -0.52280E-02   -0.52361E-02  3248   0.245E-01 0.230E-03
CGA:  14    -0.569495869732E+03   -0.38104E-02   -0.38098E-02  3248   0.224E-01 0.335E-07
CGA:  15    -0.569498923096E+03   -0.30534E-02   -0.30533E-02  3248   0.110E-01 0.278E-04
CGA:  16    -0.569501044377E+03   -0.21213E-02   -0.21199E-02  3248   0.861E-02 0.293E-04
CGA:  17    -0.569502203551E+03   -0.11592E-02   -0.11595E-02  3248   0.629E-02 0.542E-04
CGA:  18    -0.569503105545E+03   -0.90199E-03   -0.90189E-03  3248   0.443E-02 0.298E-04
CGA:  19    -0.569503711583E+03   -0.60604E-03   -0.60609E-03  3248   0.269E-02 0.170E-04
CGA:  20    -0.569504118242E+03   -0.40666E-03   -0.40687E-03  3248   0.196E-02-0.136E-04
CGA:  21    -0.569504393304E+03   -0.27506E-03   -0.27510E-03  3248   0.110E-02-0.191E-04
CGA:  22    -0.569504568683E+03   -0.17538E-03   -0.17586E-03  3248   0.643E-03-0.207E-04
CGA:  23    -0.569504644070E+03   -0.75387E-04   -0.75207E-04  3248   0.420E-03-0.869E-05
CGA:  24    -0.569504700346E+03   -0.56276E-04   -0.56258E-04  3248   0.216E-03-0.474E-05
CGA:  25    -0.569504727591E+03   -0.27244E-04   -0.27257E-04  3248   0.137E-03 0.117E-05
CGA:  26    -0.569504749056E+03   -0.21465E-04   -0.21409E-04  3248   0.694E-04 0.331E-05
CGA:  27    -0.569504759597E+03   -0.10541E-04   -0.10518E-04  3248   0.593E-04 0.263E-05
CGA:  28    -0.569504769037E+03   -0.94408E-05   -0.94151E-05  3248   0.404E-04 0.200E-05
   3 F= -.56950477E+03 E0= -.56949289E+03  d E =-.304287E+00  mag=    70.0000
       N       E                     dE             d eps       ncg     rms          ort
SDA:   1    -0.555353261175E+03    0.14151E+02    0.00000E+00  3248   0.501E+02 0.000E+00
CGA:   2    -0.563505563819E+03   -0.81523E+01   -0.81505E+01  3248   0.305E+02 0.186E+00
CGA:   3    -0.567031680186E+03   -0.35261E+01   -0.35571E+01  3248   0.122E+02 0.208E+00
CGA:   4    -0.568472603201E+03   -0.14409E+01   -0.14118E+01  3248   0.695E+01-0.449E+00
CGA:   5    -0.569251716695E+03   -0.77911E+00   -0.77698E+00  3248   0.228E+01-0.501E-01
CGA:   6    -0.569465603130E+03   -0.21389E+00   -0.21400E+00  3248   0.930E+00-0.987E-02
CGA:   7    -0.569572191927E+03   -0.10659E+00   -0.10689E+00  3248   0.248E+00 0.436E-02
CGA:   8    -0.569607538715E+03   -0.35347E-01   -0.35371E-01  3248   0.166E+00-0.194E-02
CGA:   9    -0.569626168769E+03   -0.18630E-01   -0.18708E-01  3248   0.797E-01 0.109E-02
CGA:  10    -0.569634949222E+03   -0.87805E-02   -0.87696E-02  3248   0.454E-01-0.881E-04
CGA:  11    -0.569641593363E+03   -0.66441E-02   -0.66386E-02  3248   0.243E-01 0.268E-03
CGA:  12    -0.569646527921E+03   -0.49346E-02   -0.49385E-02  3248   0.208E-01-0.454E-04
CGA:  13    -0.569648985384E+03   -0.24575E-02   -0.24614E-02  3248   0.140E-01 0.621E-04
CGA:  14    -0.569651187967E+03   -0.22026E-02   -0.22028E-02  3248   0.107E-01-0.153E-04
CGA:  15    -0.569652657716E+03   -0.14697E-02   -0.14698E-02  3248   0.652E-02 0.399E-04
CGA:  16    -0.569653684769E+03   -0.10271E-02   -0.10270E-02  3248   0.452E-02 0.493E-05
CGA:  17    -0.569654381883E+03   -0.69711E-03   -0.69676E-03  3248   0.282E-02 0.209E-04
CGA:  18    -0.569654795744E+03   -0.41386E-03   -0.41381E-03  3248   0.242E-02 0.897E-05
CGA:  19    -0.569655103230E+03   -0.30749E-03   -0.30758E-03  3248   0.115E-02 0.518E-05
CGA:  20    -0.569655298466E+03   -0.19524E-03   -0.19551E-03  3248   0.929E-03-0.718E-05
CGA:  21    -0.569655432767E+03   -0.13430E-03   -0.13433E-03  3248   0.455E-03-0.648E-05
CGA:  22    -0.569655495551E+03   -0.62783E-04   -0.62774E-04  3248   0.353E-03-0.496E-05
CGA:  23    -0.569655537833E+03   -0.42283E-04   -0.42210E-04  3248   0.150E-03-0.357E-05
CGA:  24    -0.569655560785E+03   -0.22952E-04   -0.22978E-04  3248   0.103E-03-0.165E-05
CGA:  25    -0.569655575044E+03   -0.14259E-04   -0.14259E-04  3248   0.569E-04 0.166E-06
CGA:  26    -0.569655583857E+03   -0.88131E-05   -0.88078E-05  3248   0.445E-04 0.366E-06
   4 F= -.56965558E+03 E0= -.56964498E+03  d E =-.150815E+00  mag=    70.0000
       N       E                     dE             d eps       ncg     rms          ort
SDA:   1    -0.545388277933E+03    0.24267E+02    0.00000E+00  3248   0.683E+02 0.000E+00
CGA:   2    -0.559945140646E+03   -0.14557E+02   -0.14714E+02  3248   0.532E+02-0.945E+00
CGA:   3    -0.566330245547E+03   -0.63851E+01   -0.62735E+01  3248   0.169E+02-0.275E+00
CGA:   4    -0.568411686342E+03   -0.20814E+01   -0.20743E+01  3248   0.761E+01-0.106E+00
CGA:   5    -0.569304448631E+03   -0.89276E+00   -0.88968E+00  3248   0.215E+01-0.521E-01
CGA:   6    -0.569613717082E+03   -0.30927E+00   -0.30943E+00  3248   0.817E+00-0.206E-01
CGA:   7    -0.569699366163E+03   -0.85649E-01   -0.86215E-01  3248   0.269E+00 0.141E-02
CGA:   8    -0.569739724049E+03   -0.40358E-01   -0.40441E-01  3248   0.188E+00-0.463E-02
CGA:   9    -0.569759045065E+03   -0.19321E-01   -0.19578E-01  3248   0.724E-01 0.118E-02
CGA:  10    -0.569769651717E+03   -0.10607E-01   -0.10610E-01  3248   0.395E-01-0.227E-03
CGA:  11    -0.569774665440E+03   -0.50137E-02   -0.50197E-02  3248   0.230E-01 0.283E-03
CGA:  12    -0.569778589907E+03   -0.39245E-02   -0.39185E-02  3248   0.981E-02 0.167E-03
CGA:  13    -0.569780374604E+03   -0.17847E-02   -0.17828E-02  3248   0.788E-02 0.385E-04
CGA:  14    -0.569781450381E+03   -0.10758E-02   -0.10757E-02  3248   0.352E-02-0.186E-04
CGA:  15    -0.569782077864E+03   -0.62748E-03   -0.62809E-03  3248   0.251E-02-0.200E-04
CGA:  16    -0.569782439270E+03   -0.36141E-03   -0.36144E-03  3248   0.151E-02-0.226E-04
CGA:  17    -0.569782677428E+03   -0.23816E-03   -0.23811E-03  3248   0.130E-02 0.650E-06
CGA:  18    -0.569782859917E+03   -0.18249E-03   -0.18251E-03  3248   0.792E-03 0.648E-05
CGA:  19    -0.569782999980E+03   -0.14006E-03   -0.13972E-03  3248   0.637E-03 0.108E-04
CGA:  20    -0.569783101017E+03   -0.10104E-03   -0.10094E-03  3248   0.396E-03 0.886E-05
CGA:  21    -0.569783171593E+03   -0.70576E-04   -0.70526E-04  3248   0.244E-03 0.164E-05
CGA:  22    -0.569783211254E+03   -0.39660E-04   -0.39698E-04  3248   0.136E-03-0.257E-05
CGA:  23    -0.569783233778E+03   -0.22524E-04   -0.22645E-04  3248   0.926E-04-0.596E-05
CGA:  24    -0.569783247147E+03   -0.13369E-04   -0.13377E-04  3248   0.493E-04-0.496E-05
CGA:  25    -0.569783255671E+03   -0.85245E-05   -0.86810E-05  3248   0.420E-04-0.428E-05
   5 F= -.56978326E+03 E0= -.56977305E+03  d E =-.127672E+00  mag=    70.0000
       N       E                     dE             d eps       ncg     rms          ort
SDA:   1    -0.564618549618E+03    0.51647E+01    0.00000E+00  3248   0.170E+02 0.000E+00
CGA:   2    -0.567405104364E+03   -0.27866E+01   -0.27882E+01  3248   0.119E+02-0.678E-01
CGA:   3    -0.569074066382E+03   -0.16690E+01   -0.16721E+01  3248   0.352E+01 0.143E+00
CGA:   4    -0.569514260470E+03   -0.44019E+00   -0.42936E+00  3248   0.233E+01-0.103E+00
CGA:   5    -0.569747980574E+03   -0.23372E+00   -0.23920E+00  3248   0.490E+00 0.105E-01
CGA:   6    -0.569833235638E+03   -0.85255E-01   -0.85323E-01  3248   0.138E+00-0.156E-02
CGA:   7    -0.569850864460E+03   -0.17629E-01   -0.17648E-01  3248   0.586E-01 0.474E-03
CGA:   8    -0.569858035528E+03   -0.71711E-02   -0.71734E-02  3248   0.313E-01 0.116E-03
CGA:   9    -0.569862661262E+03   -0.46257E-02   -0.46256E-02  3248   0.918E-02 0.722E-04
CGA:  10    -0.569864594518E+03   -0.19333E-02   -0.19349E-02  3248   0.546E-02-0.252E-04
CGA:  11    -0.569865342891E+03   -0.74837E-03   -0.74799E-03  3248   0.339E-02-0.382E-04
CGA:  12    -0.569865822264E+03   -0.47937E-03   -0.47916E-03  3248   0.158E-02-0.338E-04
CGA:  13    -0.569866085138E+03   -0.26287E-03   -0.26293E-03  3248   0.859E-03-0.327E-05
CGA:  14    -0.569866229522E+03   -0.14438E-03   -0.14405E-03  3248   0.487E-03 0.180E-04
CGA:  15    -0.569866292136E+03   -0.62614E-04   -0.62993E-04  3248   0.304E-03 0.149E-04
CGA:  16    -0.569866348882E+03   -0.56746E-04   -0.56331E-04  3248   0.139E-03 0.135E-04
CGA:  17    -0.569866377578E+03   -0.28696E-04   -0.28643E-04  3248   0.148E-03 0.108E-05
CGA:  18    -0.569866399617E+03   -0.22040E-04   -0.22021E-04  3248   0.882E-04-0.348E-05
CGA:  19    -0.569866418236E+03   -0.18618E-04   -0.19004E-04  3248   0.795E-04-0.566E-05
CGA:  20    -0.569866430298E+03   -0.12063E-04   -0.12090E-04  3248   0.439E-04-0.387E-05
CGA:  21    -0.569866438287E+03   -0.79887E-05   -0.80056E-05  3248   0.369E-04-0.496E-06
   6 F= -.56986644E+03 E0= -.56985683E+03  d E =-.831826E-01  mag=    70.0000
       N       E                     dE             d eps       ncg     rms          ort
SDA:   1    -0.569396118054E+03    0.47031E+00    0.00000E+00  3248   0.155E+01 0.000E+00
CGA:   2    -0.569641408364E+03   -0.24529E+00   -0.24531E+00  3248   0.118E+01-0.615E-02
CGA:   3    -0.569812321552E+03   -0.17091E+00   -0.17122E+00  3248   0.383E+00 0.107E-01
CGA:   4    -0.569853711707E+03   -0.41390E-01   -0.40457E-01  3248   0.176E+00 0.213E-04
CGA:   5    -0.569876568559E+03   -0.22857E-01   -0.22924E-01  3248   0.375E-01 0.882E-03
CGA:   6    -0.569883023806E+03   -0.64552E-02   -0.64571E-02  3248   0.133E-01-0.497E-04
CGA:   7    -0.569884558471E+03   -0.15347E-02   -0.15403E-02  3248   0.576E-02 0.426E-04
CGA:   8    -0.569885289455E+03   -0.73098E-03   -0.73066E-03  3248   0.230E-02 0.718E-05
CGA:   9    -0.569885673126E+03   -0.38367E-03   -0.38350E-03  3248   0.852E-03 0.858E-05
CGA:  10    -0.569885808747E+03   -0.13562E-03   -0.13566E-03  3248   0.636E-03-0.352E-05
CGA:  11    -0.569885895742E+03   -0.86994E-04   -0.86935E-04  3248   0.296E-03-0.484E-05
CGA:  12    -0.569885950224E+03   -0.54483E-04   -0.54618E-04  3248   0.172E-03-0.384E-05
CGA:  13    -0.569885977016E+03   -0.26792E-04   -0.26793E-04  3248   0.116E-03-0.214E-06
CGA:  14    -0.569885994571E+03   -0.17554E-04   -0.17559E-04  3248   0.614E-04 0.260E-05
CGA:  15    -0.569886005021E+03   -0.10451E-04   -0.10422E-04  3248   0.363E-04 0.219E-05
CGA:  16    -0.569886011657E+03   -0.66360E-05   -0.66082E-05  3248   0.249E-04 0.127E-05
   7 F= -.56988601E+03 E0= -.56987650E+03  d E =-.195734E-01  mag=    70.0000
       N       E                     dE             d eps       ncg     rms          ort
SDA:   1    -0.544761956680E+03    0.25124E+02    0.00000E+00  3248   0.759E+02 0.000E+00
CGA:   2    -0.558879561918E+03   -0.14118E+02   -0.14134E+02  3248   0.537E+02-0.405E+00
CGA:   3    -0.566352085752E+03   -0.74725E+01   -0.74914E+01  3248   0.161E+02 0.467E+00
CGA:   4    -0.568607136370E+03   -0.22551E+01   -0.22561E+01  3248   0.757E+01-0.511E-01
CGA:   5    -0.569419994896E+03   -0.81286E+00   -0.79882E+00  3248   0.224E+01-0.195E+00
CGA:   6    -0.569751173942E+03   -0.33118E+00   -0.33117E+00  3248   0.672E+00-0.743E-02
CGA:   7    -0.569832863108E+03   -0.81689E-01   -0.81726E-01  3248   0.310E+00-0.473E-03
CGA:   8    -0.569874079672E+03   -0.41217E-01   -0.41249E-01  3248   0.136E+00 0.496E-03
CGA:   9    -0.569894066443E+03   -0.19987E-01   -0.19984E-01  3248   0.655E-01-0.453E-03
CGA:  10    -0.569903237374E+03   -0.91709E-02   -0.91722E-02  3248   0.377E-01 0.801E-04
CGA:  11    -0.569909455784E+03   -0.62184E-02   -0.62174E-02  3248   0.215E-01 0.670E-04
CGA:  12    -0.569912838569E+03   -0.33828E-02   -0.33820E-02  3248   0.145E-01 0.848E-04
CGA:  13    -0.569915099275E+03   -0.22607E-02   -0.22607E-02  3248   0.831E-02 0.786E-05
CGA:  14    -0.569916545282E+03   -0.14460E-02   -0.14454E-02  3248   0.545E-02 0.159E-04
CGA:  15    -0.569917387995E+03   -0.84271E-03   -0.84277E-03  3248   0.346E-02-0.180E-04
CGA:  16    -0.569917956524E+03   -0.56853E-03   -0.56856E-03  3248   0.216E-02-0.424E-05
CGA:  17    -0.569918332252E+03   -0.37573E-03   -0.37579E-03  3248   0.151E-02-0.275E-05
CGA:  18    -0.569918579708E+03   -0.24746E-03   -0.24737E-03  3248   0.977E-03 0.708E-05
CGA:  19    -0.569918739045E+03   -0.15934E-03   -0.15930E-03  3248   0.639E-03 0.460E-05
CGA:  20    -0.569918846315E+03   -0.10727E-03   -0.10722E-03  3248   0.351E-03 0.396E-05
CGA:  21    -0.569918902719E+03   -0.56404E-04   -0.56414E-04  3248   0.221E-03-0.214E-05
CGA:  22    -0.569918934946E+03   -0.32227E-04   -0.32200E-04  3248   0.114E-03-0.295E-05
CGA:  23    -0.569918955398E+03   -0.20452E-04   -0.20584E-04  3248   0.773E-04-0.467E-05
CGA:  24    -0.569918966784E+03   -0.11386E-04   -0.11377E-04  3248   0.493E-04-0.270E-05
CGA:  25    -0.569918975142E+03   -0.83583E-05   -0.84055E-05  3248   0.349E-04-0.231E-05
   8 F= -.56991898E+03 E0= -.56990987E+03  d E =-.329635E-01  mag=    70.0000
       N       E                     dE             d eps       ncg     rms          ort
SDA:   1    -0.557168078454E+03    0.12751E+02    0.00000E+00  3248   0.481E+02 0.000E+00
CGA:   2    -0.563992914511E+03   -0.68248E+01   -0.68148E+01  3248   0.241E+02-0.231E+00
CGA:   3    -0.567815918203E+03   -0.38230E+01   -0.38227E+01  3248   0.920E+01 0.112E+00
CGA:   4    -0.569130370362E+03   -0.13145E+01   -0.13193E+01  3248   0.474E+01 0.970E-01
CGA:   5    -0.569617462579E+03   -0.48709E+00   -0.47641E+00  3248   0.141E+01-0.993E-01
CGA:   6    -0.569827474130E+03   -0.21001E+00   -0.21001E+00  3248   0.425E+00-0.143E-02
CGA:   7    -0.569883496610E+03   -0.56022E-01   -0.56042E-01  3248   0.156E+00 0.355E-03
CGA:   8    -0.569903667073E+03   -0.20170E-01   -0.20145E-01  3248   0.916E-01-0.279E-03
CGA:   9    -0.569915583359E+03   -0.11916E-01   -0.11912E-01  3248   0.305E-01-0.326E-05
CGA:  10    -0.569920972869E+03   -0.53895E-02   -0.53864E-02  3248   0.198E-01 0.763E-04
CGA:  11    -0.569923662246E+03   -0.26894E-02   -0.26877E-02  3248   0.103E-01-0.598E-04
CGA:  12    -0.569925265126E+03   -0.16029E-02   -0.16032E-02  3248   0.675E-02-0.532E-04
CGA:  13    -0.569926267747E+03   -0.10026E-02   -0.10027E-02  3248   0.326E-02 0.180E-04
CGA:  14    -0.569926912644E+03   -0.64490E-03   -0.64397E-03  3248   0.249E-02 0.200E-04
CGA:  15    -0.569927236879E+03   -0.32423E-03   -0.32475E-03  3248   0.145E-02 0.226E-04
CGA:  16    -0.569927502163E+03   -0.26528E-03   -0.26470E-03  3248   0.837E-03 0.205E-04
CGA:  17    -0.569927646705E+03   -0.14454E-03   -0.14445E-03  3248   0.574E-03 0.604E-05
CGA:  18    -0.569927740318E+03   -0.93613E-04   -0.93642E-04  3248   0.427E-03-0.396E-05
CGA:  19    -0.569927806703E+03   -0.66384E-04   -0.66397E-04  3248   0.234E-03-0.722E-05
CGA:  20    -0.569927850758E+03   -0.44055E-04   -0.44383E-04  3248   0.178E-03-0.863E-05
CGA:  21    -0.569927875151E+03   -0.24394E-04   -0.24351E-04  3248   0.949E-04-0.297E-05
CGA:  22    -0.569927890895E+03   -0.15744E-04   -0.15741E-04  3248   0.621E-04 0.253E-06
CGA:  23    -0.569927900051E+03   -0.91554E-05   -0.91769E-05  3248   0.332E-04 0.234E-05
   9 F= -.56992790E+03 E0= -.56991881E+03  d E =-.892491E-02  mag=    70.0000
       N       E                     dE             d eps       ncg     rms          ort
SDA:   1    -0.567574885325E+03    0.23530E+01    0.00000E+00  3248   0.903E+01 0.000E+00
CGA:   2    -0.568858263613E+03   -0.12834E+01   -0.12835E+01  3248   0.445E+01 0.300E-02
CGA:   3    -0.569593478499E+03   -0.73521E+00   -0.73520E+00  3248   0.161E+01 0.632E-03
CGA:   4    -0.569871433476E+03   -0.27795E+00   -0.27795E+00  3248   0.574E+00 0.593E-03
CGA:   5    -0.569933740087E+03   -0.62307E-01   -0.62597E-01  3248   0.283E+00-0.110E-02
CGA:   6    -0.569967430146E+03   -0.33690E-01   -0.33651E-01  3248   0.744E-01-0.361E-03
CGA:   7    -0.569977754321E+03   -0.10324E-01   -0.10323E-01  3248   0.247E-01-0.719E-04
CGA:   8    -0.569981774236E+03   -0.40199E-02   -0.40201E-02  3248   0.142E-01-0.335E-04
CGA:   9    -0.569983361335E+03   -0.15871E-02   -0.15866E-02  3248   0.613E-02-0.154E-04
CGA:  10    -0.569984382059E+03   -0.10207E-02   -0.10208E-02  3248   0.288E-02-0.400E-06
CGA:  11    -0.569984843089E+03   -0.46103E-03   -0.46080E-03  3248   0.179E-02 0.272E-04
CGA:  12    -0.569985112783E+03   -0.26969E-03   -0.26976E-03  3248   0.988E-03 0.187E-04
CGA:  13    -0.569985257052E+03   -0.14427E-03   -0.14432E-03  3248   0.612E-03 0.631E-05
CGA:  14    -0.569985365897E+03   -0.10885E-03   -0.10902E-03  3248   0.328E-03-0.716E-05
CGA:  15    -0.569985422731E+03   -0.56834E-04   -0.57042E-04  3248   0.266E-03-0.933E-05
CGA:  16    -0.569985458037E+03   -0.35306E-04   -0.35179E-04  3248   0.132E-03-0.684E-05
CGA:  17    -0.569985482221E+03   -0.24184E-04   -0.24222E-04  3248   0.894E-04-0.114E-05
CGA:  18    -0.569985495960E+03   -0.13739E-04   -0.13740E-04  3248   0.539E-04 0.140E-05
CGA:  19    -0.569985505402E+03   -0.94418E-05   -0.93916E-05  3248   0.376E-04 0.312E-05
  10 F= -.56998551E+03 E0= -.56997660E+03  d E =-.576054E-01  mag=    70.0000
       N       E                     dE             d eps       ncg     rms          ort
SDA:   1    -0.569903774123E+03    0.81722E-01    0.00000E+00  3248   0.313E+00 0.000E+00
CGA:   2    -0.569950999656E+03   -0.47226E-01   -0.47225E-01  3248   0.160E+00-0.149E-04
CGA:   3    -0.569974624306E+03   -0.23625E-01   -0.23625E-01  3248   0.530E-01 0.132E-04
CGA:   4    -0.569983165596E+03   -0.85413E-02   -0.85413E-02  3248   0.311E-01-0.186E-04
CGA:   5    -0.569985998012E+03   -0.28324E-02   -0.28339E-02  3248   0.872E-02-0.145E-04
CGA:   6    -0.569987313523E+03   -0.13155E-02   -0.13155E-02  3248   0.205E-02 0.295E-05
CGA:   7    -0.569987630708E+03   -0.31718E-03   -0.31718E-03  3248   0.110E-02 0.420E-05
CGA:   8    -0.569987767354E+03   -0.13665E-03   -0.13665E-03  3248   0.563E-03 0.211E-06
CGA:   9    -0.569987844779E+03   -0.77426E-04   -0.77431E-04  3248   0.226E-03 0.395E-06
CGA:  10    -0.569987889957E+03   -0.45177E-04   -0.45245E-04  3248   0.179E-03-0.137E-05
CGA:  11    -0.569987916106E+03   -0.26149E-04   -0.26146E-04  3248   0.118E-03-0.623E-06
CGA:  12    -0.569987936657E+03   -0.20551E-04   -0.20574E-04  3248   0.866E-04-0.105E-05
CGA:  13    -0.569987950587E+03   -0.13930E-04   -0.13926E-04  3248   0.515E-04 0.397E-06
CGA:  14    -0.569987960128E+03   -0.95413E-05   -0.95212E-05  3248   0.355E-04 0.645E-06
  11 F= -.56998796E+03 E0= -.56997909E+03  d E =-.245473E-02  mag=    70.0000
       N       E                     dE             d eps       ncg     rms          ort
SDA:   1    -0.545075444423E+03    0.24913E+02    0.00000E+00  3248   0.906E+02 0.000E+00
CGA:   2    -0.559327591432E+03   -0.14252E+02   -0.14253E+02  3248   0.465E+02-0.220E+00
CGA:   3    -0.566103453144E+03   -0.67759E+01   -0.67794E+01  3248   0.151E+02 0.157E+00
CGA:   4    -0.568795193007E+03   -0.26917E+01   -0.26980E+01  3248   0.654E+01-0.184E+00
CGA:   5    -0.569508631980E+03   -0.71344E+00   -0.72625E+00  3248   0.251E+01-0.444E-01
CGA:   6    -0.569819438056E+03   -0.31081E+00   -0.31060E+00  3248   0.621E+00-0.102E-01
CGA:   7    -0.569908310110E+03   -0.88872E-01   -0.88775E-01  3248   0.325E+00-0.496E-02
CGA:   8    -0.569954429917E+03   -0.46120E-01   -0.46168E-01  3248   0.130E+00 0.246E-02
CGA:   9    -0.569975247980E+03   -0.20818E-01   -0.20828E-01  3248   0.702E-01-0.687E-03
CGA:  10    -0.569986965952E+03   -0.11718E-01   -0.11707E-01  3248   0.507E-01 0.413E-03
CGA:  11    -0.569994840867E+03   -0.78749E-02   -0.78753E-02  3248   0.288E-01-0.841E-04
CGA:  12    -0.570000696205E+03   -0.58553E-02   -0.58537E-02  3248   0.201E-01 0.300E-04
CGA:  13    -0.570004162496E+03   -0.34663E-02   -0.34670E-02  3248   0.143E-01-0.201E-04
CGA:  14    -0.570006529384E+03   -0.23669E-02   -0.23659E-02  3248   0.882E-02 0.652E-04
CGA:  15    -0.570008093687E+03   -0.15643E-02   -0.15648E-02  3248   0.567E-02-0.137E-04
CGA:  16    -0.570009048254E+03   -0.95457E-03   -0.95428E-03  3248   0.336E-02 0.164E-04
CGA:  17    -0.570009666339E+03   -0.61808E-03   -0.61839E-03  3248   0.219E-02-0.968E-05
CGA:  18    -0.570010020084E+03   -0.35375E-03   -0.35374E-03  3248   0.137E-02-0.709E-06
CGA:  19    -0.570010241454E+03   -0.22137E-03   -0.22138E-03  3248   0.697E-03-0.506E-05
CGA:  20    -0.570010364917E+03   -0.12346E-03   -0.12348E-03  3248   0.372E-03-0.138E-05
CGA:  21    -0.570010422413E+03   -0.57496E-04   -0.57486E-04  3248   0.216E-03-0.142E-05
CGA:  22    -0.570010457497E+03   -0.35084E-04   -0.35084E-04  3248   0.109E-03 0.141E-06
CGA:  23    -0.570010475923E+03   -0.18426E-04   -0.18432E-04  3248   0.691E-04-0.585E-06
CGA:  24    -0.570010488132E+03   -0.12208E-04   -0.12213E-04  3248   0.413E-04-0.266E-06
CGA:  25    -0.570010496153E+03   -0.80211E-05   -0.80635E-05  3248   0.372E-04-0.121E-05
  12 F= -.57001050E+03 E0= -.57000259E+03  d E =-.225360E-01  mag=    70.0000
       N       E                     dE             d eps       ncg     rms          ort
SDA:   1    -0.539143248129E+03    0.30867E+02    0.00000E+00  3248   0.131E+03 0.000E+00
CGA:   2    -0.555229389665E+03   -0.16086E+02   -0.16128E+02  3248   0.547E+02 0.889E-01
CGA:   3    -0.564400056323E+03   -0.91707E+01   -0.91587E+01  3248   0.224E+02 0.112E+01
CGA:   4    -0.567559296217E+03   -0.31592E+01   -0.31587E+01  3248   0.126E+02-0.249E+00
CGA:   5    -0.568840534504E+03   -0.12812E+01   -0.13195E+01  3248   0.389E+01-0.259E+00
CGA:   6    -0.569300436171E+03   -0.45990E+00   -0.42746E+00  3248   0.176E+01-0.182E+00
CGA:   7    -0.569480289574E+03   -0.17985E+00   -0.18510E+00  3248   0.567E+00 0.430E-02
CGA:   8    -0.569556533495E+03   -0.76244E-01   -0.76106E-01  3248   0.238E+00-0.275E-02
CGA:   9    -0.569590868985E+03   -0.34335E-01   -0.34310E-01  3248   0.139E+00-0.161E-02
CGA:  10    -0.569605756622E+03   -0.14888E-01   -0.15020E-01  3248   0.720E-01 0.262E-03
CGA:  11    -0.569614527735E+03   -0.87711E-02   -0.87091E-02  3248   0.465E-01-0.551E-03
CGA:  12    -0.569621096558E+03   -0.65688E-02   -0.65733E-02  3248   0.242E-01 0.383E-03
CGA:  13    -0.569624988045E+03   -0.38915E-02   -0.38932E-02  3248   0.159E-01-0.669E-04
CGA:  14    -0.569627921453E+03   -0.29334E-02   -0.29302E-02  3248   0.103E-01 0.673E-04
CGA:  15    -0.569629294503E+03   -0.13731E-02   -0.13747E-02  3248   0.820E-02 0.392E-04
CGA:  16    -0.569630478643E+03   -0.11841E-02   -0.11837E-02  3248   0.579E-02-0.399E-04
CGA:  17    -0.569631147337E+03   -0.66869E-03   -0.67020E-03  3248   0.281E-02 0.635E-05
CGA:  18    -0.569631667872E+03   -0.52053E-03   -0.52076E-03  3248   0.190E-02-0.440E-05
CGA:  19    -0.569631993916E+03   -0.32604E-03   -0.32597E-03  3248   0.112E-02 0.194E-05
CGA:  20    -0.569632181340E+03   -0.18742E-03   -0.18742E-03  3248   0.793E-03 0.820E-06
CGA:  21    -0.569632304710E+03   -0.12337E-03   -0.12338E-03  3248   0.497E-03-0.262E-05
CGA:  22    -0.569632368163E+03   -0.63453E-04   -0.63447E-04  3248   0.371E-03-0.117E-05
CGA:  23    -0.569632415575E+03   -0.47412E-04   -0.47353E-04  3248   0.185E-03-0.197E-05
CGA:  24    -0.569632447886E+03   -0.32311E-04   -0.32357E-04  3248   0.122E-03-0.180E-05
CGA:  25    -0.569632466333E+03   -0.18448E-04   -0.18449E-04  3248   0.755E-04-0.361E-06
CGA:  26    -0.569632481852E+03   -0.15519E-04   -0.15547E-04  3248   0.505E-04-0.495E-06
CGA:  27    -0.569632491076E+03   -0.92241E-05   -0.92216E-05  3248   0.404E-04 0.740E-07
  13 F= -.56963249E+03 E0= -.56962421E+03  d E =0.378005E+00  mag=    70.0000
       N       E                     dE             d eps       ncg     rms          ort
SDA:   1    -0.560456670461E+03    0.91758E+01    0.00000E+00  3248   0.442E+02 0.000E+00
CGA:   2    -0.565563890232E+03   -0.51072E+01   -0.51297E+01  3248   0.159E+02 0.105E+00
CGA:   3    -0.568363079050E+03   -0.27992E+01   -0.27957E+01  3248   0.688E+01 0.108E+00
CGA:   4    -0.569438304987E+03   -0.10752E+01   -0.10752E+01  3248   0.374E+01-0.650E-01
CGA:   5    -0.569793280368E+03   -0.35498E+00   -0.36480E+00  3248   0.108E+01-0.791E-01
CGA:   6    -0.569947833455E+03   -0.15455E+00   -0.15422E+00  3248   0.404E+00-0.256E-01
CGA:   7    -0.569994679938E+03   -0.46846E-01   -0.48064E-01  3248   0.130E+00 0.109E-01
CGA:   8    -0.570015039355E+03   -0.20359E-01   -0.20377E-01  3248   0.612E-01-0.544E-02
CGA:   9    -0.570023616773E+03   -0.85774E-02   -0.85883E-02  3248   0.238E-01 0.124E-02
CGA:  10    -0.570027433855E+03   -0.38171E-02   -0.38201E-02  3248   0.148E-01-0.241E-03
CGA:  11    -0.570029380687E+03   -0.19468E-02   -0.19491E-02  3248   0.786E-02 0.483E-04
CGA:  12    -0.570030715819E+03   -0.13351E-02   -0.13351E-02  3248   0.423E-02 0.478E-05
CGA:  13    -0.570031434755E+03   -0.71894E-03   -0.71873E-03  3248   0.268E-02 0.115E-04
CGA:  14    -0.570031906105E+03   -0.47135E-03   -0.47120E-03  3248   0.163E-02 0.464E-05
CGA:  15    -0.570032206589E+03   -0.30048E-03   -0.30049E-03  3248   0.108E-02-0.815E-06
CGA:  16    -0.570032359541E+03   -0.15295E-03   -0.15287E-03  3248   0.635E-03-0.453E-05
CGA:  17    -0.570032469505E+03   -0.10996E-03   -0.10994E-03  3248   0.420E-03-0.134E-06
CGA:  18    -0.570032536622E+03   -0.67117E-04   -0.67137E-04  3248   0.240E-03-0.294E-05
CGA:  19    -0.570032586465E+03   -0.49842E-04   -0.49824E-04  3248   0.162E-03 0.943E-07
CGA:  20    -0.570032613831E+03   -0.27367E-04   -0.27373E-04  3248   0.116E-03-0.262E-06
CGA:  21    -0.570032634126E+03   -0.20295E-04   -0.20282E-04  3248   0.710E-04 0.732E-06
CGA:  22    -0.570032645447E+03   -0.11321E-04   -0.11321E-04  3248   0.517E-04-0.101E-06
CGA:  23    -0.570032654406E+03   -0.89590E-05   -0.89594E-05  3248   0.286E-04-0.331E-07
  14 F= -.57003265E+03 E0= -.57002583E+03  d E =-.400163E+00  mag=    70.0000
       N       E                     dE             d eps       ncg     rms          ort
SDA:   1    -0.568935594957E+03    0.10971E+01    0.00000E+00  3248   0.563E+01 0.000E+00
CGA:   2    -0.569541636369E+03   -0.60604E+00   -0.60606E+00  3248   0.187E+01-0.310E-04
CGA:   3    -0.569878605654E+03   -0.33697E+00   -0.33694E+00  3248   0.702E+00 0.924E-03
CGA:   4    -0.570001264040E+03   -0.12266E+00   -0.12273E+00  3248   0.377E+00-0.265E-02
CGA:   5    -0.570038193030E+03   -0.36929E-01   -0.37573E-01  3248   0.120E+00-0.201E-02
CGA:   6    -0.570055144960E+03   -0.16952E-01   -0.16941E-01  3248   0.339E-01-0.289E-03
CGA:   7    -0.570060246176E+03   -0.51012E-02   -0.51021E-02  3248   0.130E-01 0.788E-04
CGA:   8    -0.570062109170E+03   -0.18630E-02   -0.18627E-02  3248   0.666E-02 0.542E-05
CGA:   9    -0.570062958404E+03   -0.84923E-03   -0.85015E-03  3248   0.252E-02 0.167E-04
CGA:  10    -0.570063396537E+03   -0.43813E-03   -0.43828E-03  3248   0.120E-02-0.687E-05
CGA:  11    -0.570063601913E+03   -0.20538E-03   -0.20538E-03  3248   0.885E-03-0.144E-05
CGA:  12    -0.570063734476E+03   -0.13256E-03   -0.13255E-03  3248   0.439E-03-0.172E-05
CGA:  13    -0.570063816377E+03   -0.81902E-04   -0.81815E-04  3248   0.297E-03 0.268E-05
CGA:  14    -0.570063870574E+03   -0.54196E-04   -0.54181E-04  3248   0.203E-03 0.770E-06
CGA:  15    -0.570063903839E+03   -0.33265E-04   -0.33261E-04  3248   0.130E-03 0.979E-06
CGA:  16    -0.570063925682E+03   -0.21843E-04   -0.21846E-04  3248   0.710E-04-0.318E-06
CGA:  17    -0.570063939678E+03   -0.13996E-04   -0.14016E-04  3248   0.521E-04-0.537E-06
CGA:  18    -0.570063947835E+03   -0.81573E-05   -0.81535E-05  3248   0.344E-04-0.101E-05
  15 F= -.57006395E+03 E0= -.57005756E+03  d E =-.312934E-01  mag=    70.0000
       N       E                     dE             d eps       ncg     rms          ort
SDA:   1    -0.569971295550E+03    0.92644E-01    0.00000E+00  3248   0.451E+00 0.000E+00
CGA:   2    -0.570022063445E+03   -0.50768E-01   -0.50769E-01  3248   0.175E+00 0.515E-05
CGA:   3    -0.570053813969E+03   -0.31751E-01   -0.31751E-01  3248   0.503E-01-0.104E-04
CGA:   4    -0.570062857861E+03   -0.90439E-02   -0.90428E-02  3248   0.267E-01 0.225E-04
CGA:   5    -0.570065687833E+03   -0.28300E-02   -0.28203E-02  3248   0.923E-02-0.170E-04
CGA:   6    -0.570066856656E+03   -0.11688E-02   -0.11696E-02  3248   0.231E-02 0.850E-05
CGA:   7    -0.570067241720E+03   -0.38506E-03   -0.38495E-03  3248   0.874E-03 0.135E-04
CGA:   8    -0.570067371606E+03   -0.12989E-03   -0.12998E-03  3248   0.479E-03 0.839E-05
CGA:   9    -0.570067432802E+03   -0.61196E-04   -0.61204E-04  3248   0.193E-03 0.595E-06
CGA:  10    -0.570067470249E+03   -0.37448E-04   -0.37574E-04  3248   0.105E-03-0.327E-05
CGA:  11    -0.570067488947E+03   -0.18698E-04   -0.18782E-04  3248   0.888E-04-0.353E-05
CGA:  12    -0.570067501261E+03   -0.12314E-04   -0.12297E-04  3248   0.401E-04-0.106E-05
CGA:  13    -0.570067510051E+03   -0.87905E-05   -0.87161E-05  3248   0.265E-04 0.121E-05
  16 F= -.57006751E+03 E0= -.57006113E+03  d E =-.356222E-02  mag=    70.0000
       N       E                     dE             d eps       ncg     rms          ort
SDA:   1    -0.569511322948E+03    0.55618E+00    0.00000E+00  3248   0.213E+01 0.000E+00
CGA:   2    -0.569813491878E+03   -0.30217E+00   -0.30216E+00  3248   0.109E+01-0.448E-04
CGA:   3    -0.569988153938E+03   -0.17466E+00   -0.17466E+00  3248   0.316E+00 0.212E-03
CGA:   4    -0.570047878799E+03   -0.59725E-01   -0.59738E-01  3248   0.120E+00-0.339E-03
CGA:   5    -0.570062722828E+03   -0.14844E-01   -0.14904E-01  3248   0.499E-01 0.281E-03
CGA:   6    -0.570068298570E+03   -0.55757E-02   -0.55533E-02  3248   0.133E-01-0.219E-04
CGA:   7    -0.570070357918E+03   -0.20593E-02   -0.20595E-02  3248   0.492E-02 0.342E-04
CGA:   8    -0.570071211993E+03   -0.85408E-03   -0.85407E-03  3248   0.231E-02 0.295E-05
CGA:   9    -0.570071527891E+03   -0.31590E-03   -0.31598E-03  3248   0.134E-02 0.561E-06
CGA:  10    -0.570071751560E+03   -0.22367E-03   -0.22377E-03  3248   0.684E-03-0.931E-05
CGA:  11    -0.570071890303E+03   -0.13874E-03   -0.13894E-03  3248   0.494E-03-0.457E-05
CGA:  12    -0.570071969139E+03   -0.78835E-04   -0.78837E-04  3248   0.310E-03-0.194E-05
CGA:  13    -0.570072027132E+03   -0.57994E-04   -0.57868E-04  3248   0.201E-03 0.445E-05
CGA:  14    -0.570072061072E+03   -0.33940E-04   -0.33923E-04  3248   0.127E-03 0.349E-05
CGA:  15    -0.570072084367E+03   -0.23295E-04   -0.23248E-04  3248   0.674E-04 0.256E-05
CGA:  16    -0.570072098292E+03   -0.13924E-04   -0.13952E-04  3248   0.564E-04-0.679E-06
CGA:  17    -0.570072106481E+03   -0.81888E-05   -0.81747E-05  3248   0.290E-04-0.810E-06
  17 F= -.57007211E+03 E0= -.57006572E+03  d E =-.459643E-02  mag=    70.0000
       N       E                     dE             d eps       ncg     rms          ort
SDA:   1    -0.567178832841E+03    0.28933E+01    0.00000E+00  3248   0.105E+02 0.000E+00
CGA:   2    -0.568759590566E+03   -0.15808E+01   -0.15790E+01  3248   0.594E+01-0.406E-01
CGA:   3    -0.569620865283E+03   -0.86127E+00   -0.86494E+00  3248   0.189E+01 0.675E-01
CGA:   4    -0.569899950118E+03   -0.27908E+00   -0.27702E+00  3248   0.110E+01-0.415E-01
CGA:   5    -0.570019768320E+03   -0.11982E+00   -0.12187E+00  3248   0.247E+00-0.497E-03
CGA:   6    -0.570058872973E+03   -0.39105E-01   -0.39101E-01  3248   0.644E-01-0.553E-03
CGA:   7    -0.570069047469E+03   -0.10174E-01   -0.10176E-01  3248   0.304E-01 0.192E-03
CGA:   8    -0.570073377282E+03   -0.43298E-02   -0.43240E-02  3248   0.143E-01-0.113E-03
CGA:   9    -0.570075450839E+03   -0.20736E-02   -0.20749E-02  3248   0.633E-02 0.357E-04
CGA:  10    -0.570076711709E+03   -0.12609E-02   -0.12627E-02  3248   0.415E-02-0.354E-04
CGA:  11    -0.570077487789E+03   -0.77608E-03   -0.77540E-03  3248   0.270E-02 0.153E-04
CGA:  12    -0.570077984862E+03   -0.49707E-03   -0.49734E-03  3248   0.197E-02-0.861E-05
CGA:  13    -0.570078322211E+03   -0.33735E-03   -0.33724E-03  3248   0.118E-02 0.103E-04
CGA:  14    -0.570078560002E+03   -0.23779E-03   -0.23757E-03  3248   0.699E-03 0.644E-05
CGA:  15    -0.570078692793E+03   -0.13279E-03   -0.13269E-03  3248   0.454E-03 0.402E-05
CGA:  16    -0.570078772909E+03   -0.80116E-04   -0.80140E-04  3248   0.303E-03-0.235E-05
CGA:  17    -0.570078824669E+03   -0.51760E-04   -0.51765E-04  3248   0.163E-03-0.142E-05
CGA:  18    -0.570078858994E+03   -0.34325E-04   -0.34416E-04  3248   0.966E-04-0.196E-05
CGA:  19    -0.570078874754E+03   -0.15761E-04   -0.15761E-04  3248   0.557E-04 0.466E-07
CGA:  20    -0.570078883952E+03   -0.91983E-05   -0.91977E-05  3248   0.278E-04-0.123E-06
  18 F= -.57007888E+03 E0= -.57007284E+03  d E =-.677747E-02  mag=    70.0000
       N       E                     dE             d eps       ncg     rms          ort
SDA:   1    -0.539945922425E+03    0.30133E+02    0.00000E+00  3248   0.121E+03 0.000E+00
CGA:   2    -0.555713399606E+03   -0.15767E+02   -0.15783E+02  3248   0.574E+02 0.102E+00
CGA:   3    -0.565575330046E+03   -0.98619E+01   -0.98612E+01  3248   0.155E+02 0.114E+00
CGA:   4    -0.568550646873E+03   -0.29753E+01   -0.29707E+01  3248   0.588E+01 0.123E+00
CGA:   5    -0.569322236091E+03   -0.77159E+00   -0.74572E+00  3248   0.311E+01-0.203E+00
CGA:   6    -0.569592264231E+03   -0.27003E+00   -0.29510E+00  3248   0.903E+00-0.797E-01
CGA:   7    -0.569709493187E+03   -0.11723E+00   -0.11553E+00  3248   0.319E+00-0.140E-01
CGA:   8    -0.569759619888E+03   -0.50127E-01   -0.50144E-01  3248   0.170E+00 0.352E-02
CGA:   9    -0.569779167116E+03   -0.19547E-01   -0.19155E-01  3248   0.883E-01-0.647E-03
CGA:  10    -0.569792255536E+03   -0.13088E-01   -0.13106E-01  3248   0.421E-01 0.749E-03
CGA:  11    -0.569799114954E+03   -0.68594E-02   -0.68619E-02  3248   0.343E-01-0.427E-03
CGA:  12    -0.569803616770E+03   -0.45018E-02   -0.45260E-02  3248   0.175E-01 0.339E-03
CGA:  13    -0.569806736508E+03   -0.31197E-02   -0.31246E-02  3248   0.140E-01-0.147E-03
CGA:  14    -0.569808545025E+03   -0.18085E-02   -0.18127E-02  3248   0.849E-02 0.331E-04
CGA:  15    -0.569810060299E+03   -0.15153E-02   -0.15169E-02  3248   0.551E-02-0.601E-04
CGA:  16    -0.569810881481E+03   -0.82118E-03   -0.82139E-03  3248   0.395E-02 0.314E-05
CGA:  17    -0.569811478910E+03   -0.59743E-03   -0.59710E-03  3248   0.285E-02-0.238E-04
CGA:  18    -0.569811920045E+03   -0.44113E-03   -0.44118E-03  3248   0.151E-02 0.182E-04
CGA:  19    -0.569812190592E+03   -0.27055E-03   -0.27055E-03  3248   0.126E-02 0.383E-05
CGA:  20    -0.569812343098E+03   -0.15251E-03   -0.15297E-03  3248   0.637E-03 0.729E-05
CGA:  21    -0.569812464016E+03   -0.12092E-03   -0.12095E-03  3248   0.385E-03-0.546E-06
CGA:  22    -0.569812514756E+03   -0.50740E-04   -0.50702E-04  3248   0.244E-03-0.219E-05
CGA:  23    -0.569812552084E+03   -0.37327E-04   -0.37309E-04  3248   0.137E-03-0.529E-05
CGA:  24    -0.569812572834E+03   -0.20750E-04   -0.20745E-04  3248   0.959E-04-0.375E-05
CGA:  25    -0.569812587388E+03   -0.14555E-04   -0.14553E-04  3248   0.666E-04-0.273E-05
CGA:  26    -0.569812597881E+03   -0.10492E-04   -0.10496E-04  3248   0.451E-04-0.698E-06
CGA:  27    -0.569812605350E+03   -0.74690E-05   -0.74651E-05  3248   0.399E-04 0.420E-06
  19 F= -.56981261E+03 E0= -.56980585E+03  d E =0.266279E+00  mag=    70.0000
       N       E                     dE             d eps       ncg     rms          ort
SDA:   1    -0.562097689256E+03    0.77149E+01    0.00000E+00  3248   0.415E+02 0.000E+00
CGA:   2    -0.566417252287E+03   -0.43196E+01   -0.43222E+01  3248   0.137E+02 0.927E-02
CGA:   3    -0.569017667279E+03   -0.26004E+01   -0.25998E+01  3248   0.378E+01 0.107E-01
CGA:   4    -0.569760838483E+03   -0.74317E+00   -0.74310E+00  3248   0.156E+01 0.108E-02
CGA:   5    -0.569987268791E+03   -0.22643E+00   -0.22649E+00  3248   0.482E+00 0.187E-02
CGA:   6    -0.570050538274E+03   -0.63269E-01   -0.63147E-01  3248   0.182E+00-0.147E-02
CGA:   7    -0.570074508029E+03   -0.23970E-01   -0.24021E-01  3248   0.745E-01 0.761E-03
CGA:   8    -0.570085374583E+03   -0.10867E-01   -0.10858E-01  3248   0.322E-01-0.296E-03
CGA:   9    -0.570089839912E+03   -0.44653E-02   -0.44800E-02  3248   0.172E-01 0.400E-03
CGA:  10    -0.570092373635E+03   -0.25337E-02   -0.25297E-02  3248   0.816E-02-0.214E-03
CGA:  11    -0.570094017127E+03   -0.16435E-02   -0.16403E-02  3248   0.468E-02 0.383E-04
CGA:  12    -0.570094804607E+03   -0.78748E-03   -0.78850E-03  3248   0.347E-02-0.502E-04
CGA:  13    -0.570095374250E+03   -0.56964E-03   -0.56917E-03  3248   0.191E-02 0.341E-04
CGA:  14    -0.570095723867E+03   -0.34962E-03   -0.34958E-03  3248   0.149E-02 0.530E-05
CGA:  15    -0.570095940328E+03   -0.21646E-03   -0.21665E-03  3248   0.785E-03 0.113E-04
CGA:  16    -0.570096110000E+03   -0.16967E-03   -0.16952E-03  3248   0.494E-03 0.292E-05
CGA:  17    -0.570096195416E+03   -0.85416E-04   -0.85430E-04  3248   0.376E-03-0.142E-05
CGA:  18    -0.570096264631E+03   -0.69215E-04   -0.69376E-04  3248   0.218E-03-0.655E-05
CGA:  19    -0.570096300787E+03   -0.36156E-04   -0.36179E-04  3248   0.161E-03-0.346E-05
CGA:  20    -0.570096325620E+03   -0.24833E-04   -0.24816E-04  3248   0.829E-04-0.239E-05
CGA:  21    -0.570096341234E+03   -0.15614E-04   -0.15595E-04  3248   0.539E-04 0.580E-06
CGA:  22    -0.570096350035E+03   -0.88010E-05   -0.88023E-05  3248   0.297E-04 0.115E-05
  20 F= -.57009635E+03 E0= -.57009039E+03  d E =-.283745E+00  mag=    70.0000
       N       E                     dE             d eps       ncg     rms          ort
SDA:   1    -0.568856844466E+03    0.12395E+01    0.00000E+00  3248   0.596E+01 0.000E+00
CGA:   2    -0.569519838175E+03   -0.66299E+00   -0.66307E+00  3248   0.234E+01 0.225E-03
CGA:   3    -0.569956529162E+03   -0.43669E+00   -0.43668E+00  3248   0.575E+00 0.301E-03
CGA:   4    -0.570071672854E+03   -0.11514E+00   -0.11515E+00  3248   0.230E+00-0.112E-03
CGA:   5    -0.570106893522E+03   -0.35221E-01   -0.35219E-01  3248   0.548E-01-0.944E-04
CGA:   6    -0.570115638026E+03   -0.87445E-02   -0.87456E-02  3248   0.181E-01 0.142E-03
CGA:   7    -0.570118668287E+03   -0.30303E-02   -0.30303E-02  3248   0.714E-02 0.195E-04
CGA:   8    -0.570119758142E+03   -0.10899E-02   -0.10911E-02  3248   0.347E-02 0.569E-04
CGA:   9    -0.570120276685E+03   -0.51854E-03   -0.51796E-03  3248   0.173E-02-0.202E-04
CGA:  10    -0.570120578643E+03   -0.30196E-03   -0.30211E-03  3248   0.110E-02-0.140E-04
CGA:  11    -0.570120740542E+03   -0.16190E-03   -0.16173E-03  3248   0.545E-03-0.946E-05
CGA:  12    -0.570120860918E+03   -0.12038E-03   -0.12020E-03  3248   0.296E-03 0.295E-05
CGA:  13    -0.570120922999E+03   -0.62082E-04   -0.61837E-04  3248   0.206E-03 0.592E-05
CGA:  14    -0.570120957698E+03   -0.34698E-04   -0.34710E-04  3248   0.128E-03 0.485E-05
CGA:  15    -0.570120981986E+03   -0.24288E-04   -0.24260E-04  3248   0.877E-04 0.179E-05
CGA:  16    -0.570120998013E+03   -0.16027E-04   -0.16026E-04  3248   0.629E-04 0.697E-07
CGA:  17    -0.570121011478E+03   -0.13465E-04   -0.13557E-04  3248   0.400E-04-0.197E-05
CGA:  18    -0.570121019436E+03   -0.79581E-05   -0.80114E-05  3248   0.275E-04-0.153E-05
  21 F= -.57012102E+03 E0= -.57011543E+03  d E =-.246694E-01  mag=    70.0000
       N       E                     dE             d eps       ncg     rms          ort
SDA:   1    -0.570005126188E+03    0.11589E+00    0.00000E+00  3248   0.452E+00 0.000E+00
CGA:   2    -0.570066711199E+03   -0.61585E-01   -0.61491E-01  3248   0.244E+00-0.544E-03
CGA:   3    -0.570104033347E+03   -0.37322E-01   -0.37375E-01  3248   0.827E-01 0.106E-02
CGA:   4    -0.570115097623E+03   -0.11064E-01   -0.11013E-01  3248   0.420E-01-0.332E-03
CGA:   5    -0.570120530058E+03   -0.54324E-02   -0.54476E-02  3248   0.972E-02 0.550E-04
CGA:   6    -0.570122100909E+03   -0.15709E-02   -0.15708E-02  3248   0.292E-02-0.322E-05
CGA:   7    -0.570122500352E+03   -0.39944E-03   -0.40011E-03  3248   0.128E-02 0.162E-04
CGA:   8    -0.570122680554E+03   -0.18020E-03   -0.18030E-03  3248   0.515E-03 0.624E-05
CGA:   9    -0.570122769039E+03   -0.88485E-04   -0.88474E-04  3248   0.216E-03 0.136E-05
CGA:  10    -0.570122808798E+03   -0.39759E-04   -0.39860E-04  3248   0.154E-03-0.500E-05
CGA:  11    -0.570122832491E+03   -0.23693E-04   -0.23665E-04  3248   0.792E-04-0.368E-05
CGA:  12    -0.570122848023E+03   -0.15533E-04   -0.15590E-04  3248   0.478E-04-0.153E-05
CGA:  13    -0.570122856207E+03   -0.81838E-05   -0.81708E-05  3248   0.304E-04 0.166E-05
  22 F= -.57012286E+03 E0= -.57011731E+03  d E =-.183677E-02  mag=    70.0000
       N       E                     dE             d eps       ncg     rms          ort
SDA:   1    -0.569962718875E+03    0.16013E+00    0.00000E+00  3248   0.593E+00 0.000E+00
CGA:   2    -0.570051178918E+03   -0.88460E-01   -0.88347E-01  3248   0.325E+00-0.227E-02
CGA:   3    -0.570094071924E+03   -0.42893E-01   -0.43212E-01  3248   0.125E+00 0.236E-02
CGA:   4    -0.570112068655E+03   -0.17997E-01   -0.17946E-01  3248   0.551E-01-0.804E-03
CGA:   5    -0.570119593498E+03   -0.75248E-02   -0.75367E-02  3248   0.135E-01 0.130E-03
CGA:   6    -0.570121750032E+03   -0.21565E-02   -0.21564E-02  3248   0.433E-02-0.164E-04
CGA:   7    -0.570122298947E+03   -0.54892E-03   -0.54991E-03  3248   0.191E-02 0.991E-05
CGA:   8    -0.570122612060E+03   -0.31311E-03   -0.31313E-03  3248   0.722E-03-0.362E-05
CGA:   9    -0.570122739835E+03   -0.12777E-03   -0.12777E-03  3248   0.393E-03-0.511E-06
CGA:  10    -0.570122807928E+03   -0.68093E-04   -0.68140E-04  3248   0.272E-03-0.346E-05
CGA:  11    -0.570122857068E+03   -0.49141E-04   -0.49167E-04  3248   0.149E-03-0.150E-05
CGA:  12    -0.570122889225E+03   -0.32156E-04   -0.32191E-04  3248   0.116E-03-0.632E-06
CGA:  13    -0.570122909105E+03   -0.19880E-04   -0.19871E-04  3248   0.691E-04 0.171E-05
CGA:  14    -0.570122922950E+03   -0.13845E-04   -0.13793E-04  3248   0.426E-04 0.171E-05
CGA:  15    -0.570122931012E+03   -0.80615E-05   -0.80444E-05  3248   0.252E-04 0.108E-05
  23 F= -.57012293E+03 E0= -.57011741E+03  d E =-.748046E-04  mag=    70.0000
       N       E                     dE             d eps       ncg     rms          ort
SDA:   1    -0.569677346081E+03    0.44558E+00    0.00000E+00  3248   0.160E+01 0.000E+00
CGA:   2    -0.569934112687E+03   -0.25677E+00   -0.25643E+00  3248   0.911E+00-0.151E-01
CGA:   3    -0.570046979588E+03   -0.11287E+00   -0.11522E+00  3248   0.328E+00 0.980E-02
CGA:   4    -0.570095399314E+03   -0.48420E-01   -0.48177E-01  3248   0.145E+00-0.401E-02
CGA:   5    -0.570115577893E+03   -0.20179E-01   -0.20223E-01  3248   0.341E-01 0.559E-03
CGA:   6    -0.570120990911E+03   -0.54130E-02   -0.54121E-02  3248   0.102E-01-0.547E-04
CGA:   7    -0.570122400086E+03   -0.14092E-02   -0.14112E-02  3248   0.505E-02 0.267E-04
CGA:   8    -0.570123201410E+03   -0.80132E-03   -0.80118E-03  3248   0.180E-02-0.169E-04
CGA:   9    -0.570123543088E+03   -0.34168E-03   -0.34156E-03  3248   0.109E-02 0.162E-05
CGA:  10    -0.570123738033E+03   -0.19495E-03   -0.19507E-03  3248   0.754E-03-0.642E-05
CGA:  11    -0.570123886627E+03   -0.14859E-03   -0.14855E-03  3248   0.441E-03 0.804E-06
CGA:  12    -0.570123983643E+03   -0.97016E-04   -0.97038E-04  3248   0.367E-03-0.211E-06
CGA:  13    -0.570124044511E+03   -0.60868E-04   -0.60879E-04  3248   0.194E-03 0.294E-05
CGA:  14    -0.570124088522E+03   -0.44011E-04   -0.43914E-04  3248   0.115E-03 0.179E-05
CGA:  15    -0.570124109401E+03   -0.20879E-04   -0.20875E-04  3248   0.798E-04 0.438E-06
CGA:  16    -0.570124124299E+03   -0.14898E-04   -0.14913E-04  3248   0.413E-04-0.105E-05
CGA:  17    -0.570124132612E+03   -0.83125E-05   -0.83206E-05  3248   0.274E-04-0.275E-06
  24 F= -.57012413E+03 E0= -.57011868E+03  d E =-.120160E-02  mag=    70.0000
       N       E                     dE             d eps       ncg     rms          ort
SDA:   1    -0.542262594857E+03    0.27862E+02    0.00000E+00  3248   0.891E+02 0.000E+00
CGA:   2    -0.558389293348E+03   -0.16127E+02   -0.16125E+02  3248   0.494E+02 0.154E+00
CGA:   3    -0.566104138332E+03   -0.77148E+01   -0.77195E+01  3248   0.165E+02 0.105E+00
CGA:   4    -0.568765602948E+03   -0.26615E+01   -0.26541E+01  3248   0.653E+01-0.247E+00
CGA:   5    -0.569472174376E+03   -0.70657E+00   -0.75252E+00  3248   0.240E+01 0.295E+00
CGA:   6    -0.569790654427E+03   -0.31848E+00   -0.28855E+00  3248   0.711E+00-0.307E-02
CGA:   7    -0.569883487701E+03   -0.92833E-01   -0.93855E-01  3248   0.298E+00 0.555E-02
CGA:   8    -0.569927063009E+03   -0.43575E-01   -0.43307E-01  3248   0.154E+00-0.459E-02
CGA:   9    -0.569948693572E+03   -0.21631E-01   -0.21694E-01  3248   0.603E-01 0.943E-03
CGA:  10    -0.569959682658E+03   -0.10989E-01   -0.11007E-01  3248   0.474E-01-0.576E-03
CGA:  11    -0.569964883132E+03   -0.52005E-02   -0.52920E-02  3248   0.249E-01 0.113E-03
CGA:  12    -0.569969169573E+03   -0.42864E-02   -0.42898E-02  3248   0.162E-01-0.176E-03
CGA:  13    -0.569971556264E+03   -0.23867E-02   -0.23888E-02  3248   0.971E-02 0.642E-04
CGA:  14    -0.569973351805E+03   -0.17955E-02   -0.17973E-02  3248   0.563E-02-0.517E-04
CGA:  15    -0.569974236691E+03   -0.88489E-03   -0.88529E-03  3248   0.436E-02 0.312E-04
CGA:  16    -0.569974849709E+03   -0.61302E-03   -0.61157E-03  3248   0.272E-02-0.274E-04
CGA:  17    -0.569975263745E+03   -0.41404E-03   -0.41415E-03  3248   0.167E-02 0.511E-05
CGA:  18    -0.569975560291E+03   -0.29655E-03   -0.29663E-03  3248   0.106E-02-0.280E-05
CGA:  19    -0.569975737292E+03   -0.17700E-03   -0.17695E-03  3248   0.682E-03 0.704E-05
CGA:  20    -0.569975844805E+03   -0.10751E-03   -0.10752E-03  3248   0.443E-03 0.194E-05
CGA:  21    -0.569975901502E+03   -0.56697E-04   -0.56798E-04  3248   0.245E-03 0.143E-05
CGA:  22    -0.569975940785E+03   -0.39283E-04   -0.39283E-04  3248   0.125E-03-0.187E-05
CGA:  23    -0.569975961738E+03   -0.20953E-04   -0.20980E-04  3248   0.868E-04-0.305E-05
CGA:  24    -0.569975975520E+03   -0.13782E-04   -0.13789E-04  3248   0.546E-04-0.302E-05
CGA:  25    -0.569975983757E+03   -0.82370E-05   -0.82304E-05  3248   0.467E-04-0.152E-05
  25 F= -.56997598E+03 E0= -.56997034E+03  d E =0.148149E+00  mag=    70.0000
       N       E                     dE             d eps       ncg     rms          ort
SDA:   1    -0.559757726769E+03    0.10218E+02    0.00000E+00  3248   0.389E+02 0.000E+00
CGA:   2    -0.565221771273E+03   -0.54640E+01   -0.54636E+01  3248   0.200E+02-0.726E-02
CGA:   3    -0.568579827605E+03   -0.33581E+01   -0.33573E+01  3248   0.621E+01 0.477E-01
CGA:   4    -0.569688806916E+03   -0.11090E+01   -0.11099E+01  3248   0.223E+01-0.298E-01
CGA:   5    -0.569978592292E+03   -0.28979E+00   -0.29430E+00  3248   0.776E+00 0.461E-01
CGA:   6    -0.570090214794E+03   -0.11162E+00   -0.11056E+00  3248   0.218E+00-0.195E-01
CGA:   7    -0.570123332346E+03   -0.33118E-01   -0.33130E-01  3248   0.761E-01 0.238E-02
CGA:   8    -0.570136994330E+03   -0.13662E-01   -0.13688E-01  3248   0.341E-01-0.767E-03
CGA:   9    -0.570142286063E+03   -0.52917E-02   -0.52930E-02  3248   0.155E-01 0.277E-03
CGA:  10    -0.570145045192E+03   -0.27591E-02   -0.27632E-02  3248   0.776E-02-0.155E-03
CGA:  11    -0.570146523013E+03   -0.14778E-02   -0.14765E-02  3248   0.387E-02 0.197E-04
CGA:  12    -0.570147230272E+03   -0.70726E-03   -0.70790E-03  3248   0.237E-02-0.178E-04
CGA:  13    -0.570147660769E+03   -0.43050E-03   -0.42989E-03  3248   0.118E-02 0.262E-04
CGA:  14    -0.570147909942E+03   -0.24917E-03   -0.24861E-03  3248   0.727E-03 0.135E-04
CGA:  15    -0.570148045315E+03   -0.13537E-03   -0.13518E-03  3248   0.455E-03 0.953E-05
CGA:  16    -0.570148142842E+03   -0.97527E-04   -0.97611E-04  3248   0.285E-03-0.154E-05
CGA:  17    -0.570148203316E+03   -0.60474E-04   -0.60631E-04  3248   0.210E-03-0.374E-05
CGA:  18    -0.570148244374E+03   -0.41059E-04   -0.41200E-04  3248   0.125E-03-0.501E-05
CGA:  19    -0.570148270038E+03   -0.25664E-04   -0.25719E-04  3248   0.781E-04-0.151E-05
CGA:  20    -0.570148284206E+03   -0.14167E-04   -0.14167E-04  3248   0.415E-04 0.611E-07
CGA:  21    -0.570148292571E+03   -0.83652E-05   -0.83298E-05  3248   0.237E-04 0.134E-05
  26 F= -.57014829E+03 E0= -.57014335E+03  d E =-.172309E+00  mag=    70.0000
       N       E                     dE             d eps       ncg     rms          ort
SDA:   1    -0.570018976610E+03    0.12931E+00    0.00000E+00  3248   0.641E+00 0.000E+00
CGA:   2    -0.570091789210E+03   -0.72813E-01   -0.72743E-01  3248   0.236E+00 0.445E-04
CGA:   3    -0.570133768314E+03   -0.41979E-01   -0.41977E-01  3248   0.818E-01 0.228E-03
CGA:   4    -0.570148055570E+03   -0.14287E-01   -0.14287E-01  3248   0.376E-01-0.234E-03
CGA:   5    -0.570152661168E+03   -0.46056E-02   -0.46366E-02  3248   0.114E-01 0.461E-04
CGA:   6    -0.570154365966E+03   -0.17048E-02   -0.17032E-02  3248   0.308E-02-0.256E-04
CGA:   7    -0.570154872127E+03   -0.50616E-03   -0.50626E-03  3248   0.118E-02 0.130E-04
CGA:   8    -0.570155067102E+03   -0.19498E-03   -0.19497E-03  3248   0.529E-03 0.135E-05
CGA:   9    -0.570155149431E+03   -0.82329E-04   -0.82334E-04  3248   0.232E-03-0.407E-06
CGA:  10    -0.570155194938E+03   -0.45506E-04   -0.45600E-04  3248   0.125E-03-0.330E-05
CGA:  11    -0.570155219183E+03   -0.24245E-04   -0.24249E-04  3248   0.772E-04-0.200E-06
CGA:  12    -0.570155233467E+03   -0.14284E-04   -0.14276E-04  3248   0.469E-04 0.553E-06
CGA:  13    -0.570155243190E+03   -0.97232E-05   -0.96847E-05  3248   0.268E-04 0.118E-05
  27 F= -.57015524E+03 E0= -.57015031E+03  d E =-.695062E-02  mag=    70.0000
       N       E                     dE             d eps       ncg     rms          ort
SDA:   1    -0.569842383462E+03    0.31285E+00    0.00000E+00  3248   0.135E+01 0.000E+00
CGA:   2    -0.570010995843E+03   -0.16861E+00   -0.16860E+00  3248   0.571E+00 0.159E-03
CGA:   3    -0.570108040847E+03   -0.97045E-01   -0.97053E-01  3248   0.185E+00 0.107E-02
CGA:   4    -0.570139763680E+03   -0.31723E-01   -0.31720E-01  3248   0.865E-01-0.724E-03
CGA:   5    -0.570150536513E+03   -0.10773E-01   -0.10863E-01  3248   0.245E-01 0.216E-03
CGA:   6    -0.570154211148E+03   -0.36746E-02   -0.36707E-02  3248   0.644E-02-0.637E-04
CGA:   7    -0.570155298430E+03   -0.10873E-02   -0.10873E-02  3248   0.255E-02 0.271E-04
CGA:   8    -0.570155726837E+03   -0.42841E-03   -0.42839E-03  3248   0.117E-02-0.629E-06
CGA:   9    -0.570155917729E+03   -0.19089E-03   -0.19090E-03  3248   0.545E-03-0.125E-05
CGA:  10    -0.570156029343E+03   -0.11161E-03   -0.11188E-03  3248   0.315E-03-0.710E-05
CGA:  11    -0.570156091510E+03   -0.62166E-04   -0.62189E-04  3248   0.200E-03-0.949E-06
CGA:  12    -0.570156130662E+03   -0.39152E-04   -0.39127E-04  3248   0.122E-03 0.116E-05
CGA:  13    -0.570156156112E+03   -0.25450E-04   -0.25356E-04  3248   0.730E-04 0.278E-05
CGA:  14    -0.570156170966E+03   -0.14854E-04   -0.14824E-04  3248   0.434E-04 0.134E-05
CGA:  15    -0.570156179746E+03   -0.87797E-05   -0.87607E-05  3248   0.248E-04 0.835E-06
  28 F= -.57015618E+03 E0= -.57015116E+03  d E =-.936556E-03  mag=    70.0000
       N       E                     dE             d eps       ncg     rms          ort
SDA:   1    -0.570127914156E+03    0.28257E-01    0.00000E+00  3248   0.108E+00 0.000E+00
CGA:   2    -0.570143370455E+03   -0.15456E-01   -0.15456E-01  3248   0.531E-01 0.649E-05
CGA:   3    -0.570150941698E+03   -0.75712E-02   -0.75816E-02  3248   0.189E-01 0.761E-04
CGA:   4    -0.570154101997E+03   -0.31603E-02   -0.31595E-02  3248   0.785E-02-0.440E-04
CGA:   5    -0.570155210296E+03   -0.11083E-02   -0.11092E-02  3248   0.214E-02 0.586E-05
CGA:   6    -0.570155537616E+03   -0.32732E-03   -0.32721E-03  3248   0.574E-03-0.281E-05
CGA:   7    -0.570155629024E+03   -0.91408E-04   -0.91423E-04  3248   0.274E-03 0.279E-06
CGA:   8    -0.570155674683E+03   -0.45659E-04   -0.45646E-04  3248   0.111E-03-0.214E-05
CGA:   9    -0.570155695790E+03   -0.21107E-04   -0.21126E-04  3248   0.635E-04-0.954E-06
CGA:  10    -0.570155708594E+03   -0.12804E-04   -0.12826E-04  3248   0.423E-04-0.692E-06
CGA:  11    -0.570155716743E+03   -0.81486E-05   -0.81379E-05  3248   0.268E-04 0.526E-06
  29 F= -.57015572E+03 E0= -.57015068E+03  d E =0.463003E-03  mag=    70.0000
       N       E                     dE             d eps       ncg     rms          ort
SDA:   1    -0.569962215994E+03    0.19349E+00    0.00000E+00  3248   0.682E+00 0.000E+00
CGA:   2    -0.570072126969E+03   -0.10991E+00   -0.11015E+00  3248   0.325E+00 0.635E-02
CGA:   3    -0.570122987884E+03   -0.50861E-01   -0.50694E-01  3248   0.151E+00-0.257E-02
CGA:   4    -0.570145914897E+03   -0.22927E-01   -0.22896E-01  3248   0.455E-01-0.505E-03
CGA:   5    -0.570152605549E+03   -0.66907E-02   -0.67012E-02  3248   0.150E-01 0.131E-03
CGA:   6    -0.570154718186E+03   -0.21126E-02   -0.21088E-02  3248   0.387E-02-0.354E-04
CGA:   7    -0.570155365554E+03   -0.64737E-03   -0.64743E-03  3248   0.168E-02 0.345E-05
CGA:   8    -0.570155635519E+03   -0.26996E-03   -0.26980E-03  3248   0.642E-03-0.938E-05
CGA:   9    -0.570155759512E+03   -0.12399E-03   -0.12394E-03  3248   0.337E-03 0.137E-05
CGA:  10    -0.570155825500E+03   -0.65988E-04   -0.66010E-04  3248   0.194E-03-0.534E-06
CGA:  11    -0.570155864402E+03   -0.38902E-04   -0.38853E-04  3248   0.127E-03 0.167E-05
CGA:  12    -0.570155889714E+03   -0.25312E-04   -0.25297E-04  3248   0.828E-04 0.655E-06
CGA:  13    -0.570155906136E+03   -0.16423E-04   -0.16409E-04  3248   0.486E-04 0.619E-06
CGA:  14    -0.570155916707E+03   -0.10570E-04   -0.10580E-04  3248   0.295E-04-0.251E-06
CGA:  15    -0.570155922237E+03   -0.55306E-05   -0.55348E-05  3248   0.177E-04-0.412E-06
  30 F= -.57015592E+03 E0= -.57015087E+03  d E =-.205494E-03  mag=    70.0000
       N       E                     dE             d eps       ncg     rms          ort
SDA:   1    -0.569450034815E+03    0.70588E+00    0.00000E+00  3248   0.231E+01 0.000E+00
CGA:   2    -0.569866683123E+03   -0.41665E+00   -0.41667E+00  3248   0.122E+01 0.345E-01
CGA:   3    -0.570057666333E+03   -0.19098E+00   -0.18884E+00  3248   0.453E+00-0.216E-01
CGA:   4    -0.570128380532E+03   -0.70714E-01   -0.70794E-01  3248   0.144E+00 0.144E-02
CGA:   5    -0.570148904414E+03   -0.20524E-01   -0.20432E-01  3248   0.484E-01-0.569E-03
CGA:   6    -0.570155338015E+03   -0.64336E-02   -0.64350E-02  3248   0.129E-01 0.217E-05
CGA:   7    -0.570157447464E+03   -0.21094E-02   -0.21088E-02  3248   0.589E-02-0.319E-04
CGA:   8    -0.570158377869E+03   -0.93041E-03   -0.93092E-03  3248   0.244E-02 0.874E-05
CGA:   9    -0.570158799629E+03   -0.42176E-03   -0.42176E-03  3248   0.139E-02-0.843E-05
CGA:  10    -0.570159070540E+03   -0.27091E-03   -0.27075E-03  3248   0.810E-03 0.487E-05
CGA:  11    -0.570159229610E+03   -0.15907E-03   -0.15917E-03  3248   0.572E-03-0.264E-05
CGA:  12    -0.570159339250E+03   -0.10964E-03   -0.10959E-03  3248   0.349E-03 0.172E-05
CGA:  13    -0.570159410852E+03   -0.71602E-04   -0.71590E-04  3248   0.203E-03 0.745E-06
CGA:  14    -0.570159449301E+03   -0.38449E-04   -0.38436E-04  3248   0.134E-03 0.901E-06
CGA:  15    -0.570159474260E+03   -0.24959E-04   -0.24963E-04  3248   0.737E-04-0.254E-06
CGA:  16    -0.570159489545E+03   -0.15284E-04   -0.15303E-04  3248   0.477E-04-0.681E-06
CGA:  17    -0.570159498403E+03   -0.88587E-05   -0.88598E-05  3248   0.287E-04-0.121E-06
  31 F= -.57015950E+03 E0= -.57015432E+03  d E =-.357617E-02  mag=    70.0000
       N       E                     dE             d eps       ncg     rms          ort
SDA:   1    -0.547685405598E+03    0.22474E+02    0.00000E+00  3248   0.780E+02 0.000E+00
CGA:   2    -0.560170100843E+03   -0.12485E+02   -0.12496E+02  3248   0.401E+02 0.230E+00
CGA:   3    -0.566606318520E+03   -0.64362E+01   -0.64413E+01  3248   0.146E+02 0.124E+00
CGA:   4    -0.569050903570E+03   -0.24446E+01   -0.24424E+01  3248   0.453E+01-0.771E-01
CGA:   5    -0.569706525974E+03   -0.65562E+00   -0.66438E+00  3248   0.153E+01 0.101E+00
CGA:   6    -0.569923399371E+03   -0.21687E+00   -0.21413E+00  3248   0.385E+00-0.117E-01
CGA:   7    -0.569992273259E+03   -0.68874E-01   -0.68804E-01  3248   0.177E+00 0.692E-02
CGA:   8    -0.570019682054E+03   -0.27409E-01   -0.27218E-01  3248   0.804E-01-0.278E-02
CGA:   9    -0.570033172345E+03   -0.13490E-01   -0.13495E-01  3248   0.402E-01 0.745E-03
CGA:  10    -0.570040692234E+03   -0.75199E-02   -0.75228E-02  3248   0.229E-01-0.127E-03
CGA:  11    -0.570045122218E+03   -0.44300E-02   -0.44276E-02  3248   0.131E-01 0.719E-04
CGA:  12    -0.570047936910E+03   -0.28147E-02   -0.28165E-02  3248   0.745E-02-0.333E-04
CGA:  13    -0.570049447281E+03   -0.15104E-02   -0.15097E-02  3248   0.492E-02 0.212E-04
CGA:  14    -0.570050334630E+03   -0.88735E-03   -0.88736E-03  3248   0.268E-02-0.961E-07
CGA:  15    -0.570050859513E+03   -0.52488E-03   -0.52456E-03  3248   0.166E-02 0.121E-04
CGA:  16    -0.570051165547E+03   -0.30603E-03   -0.30610E-03  3248   0.986E-03-0.981E-05
CGA:  17    -0.570051375383E+03   -0.20984E-03   -0.20984E-03  3248   0.528E-03-0.131E-05
CGA:  18    -0.570051486204E+03   -0.11082E-03   -0.11094E-03  3248   0.326E-03-0.344E-05
CGA:  19    -0.570051545147E+03   -0.58943E-04   -0.58944E-04  3248   0.168E-03 0.737E-06
CGA:  20    -0.570051578716E+03   -0.33570E-04   -0.33577E-04  3248   0.100E-03-0.313E-06
CGA:  21    -0.570051596199E+03   -0.17482E-04   -0.17484E-04  3248   0.562E-04 0.108E-06
CGA:  22    -0.570051608744E+03   -0.12545E-04   -0.12579E-04  3248   0.374E-04-0.838E-06
CGA:  23    -0.570051616506E+03   -0.77619E-05   -0.77798E-05  3248   0.272E-04-0.693E-06
  32 F= -.57005162E+03 E0= -.57004634E+03  d E =0.107882E+00  mag=    70.0000
       N       E                     dE             d eps       ncg     rms          ort
SDA:   1    -0.561731646919E+03    0.83200E+01    0.00000E+00  3248   0.341E+02 0.000E+00
CGA:   2    -0.566143321330E+03   -0.44117E+01   -0.44159E+01  3248   0.151E+02 0.138E-01
CGA:   3    -0.568759240135E+03   -0.26159E+01   -0.26168E+01  3248   0.570E+01 0.317E-01
CGA:   4    -0.569788507067E+03   -0.10293E+01   -0.10290E+01  3248   0.174E+01-0.225E-01
CGA:   5    -0.570034492730E+03   -0.24599E+00   -0.24931E+00  3248   0.624E+00 0.183E-01
CGA:   6    -0.570121010413E+03   -0.86518E-01   -0.84258E-01  3248   0.185E+00-0.590E-02
CGA:   7    -0.570149167803E+03   -0.28157E-01   -0.28302E-01  3248   0.706E-01 0.191E-02
CGA:   8    -0.570161105934E+03   -0.11938E-01   -0.11921E-01  3248   0.287E-01-0.588E-03
CGA:   9    -0.570165966226E+03   -0.48603E-02   -0.48642E-02  3248   0.137E-01 0.233E-03
CGA:  10    -0.570168357603E+03   -0.23914E-02   -0.23903E-02  3248   0.775E-02-0.100E-03
CGA:  11    -0.570169768324E+03   -0.14107E-02   -0.14102E-02  3248   0.370E-02 0.635E-04
CGA:  12    -0.570170559395E+03   -0.79107E-03   -0.79169E-03  3248   0.254E-02-0.867E-05
CGA:  13    -0.570171006120E+03   -0.44673E-03   -0.44683E-03  3248   0.146E-02 0.142E-04
CGA:  14    -0.570171308476E+03   -0.30236E-03   -0.30267E-03  3248   0.825E-03-0.885E-05
CGA:  15    -0.570171465965E+03   -0.15749E-03   -0.15745E-03  3248   0.512E-03 0.161E-05
CGA:  16    -0.570171559775E+03   -0.93810E-04   -0.93812E-04  3248   0.286E-03-0.872E-06
CGA:  17    -0.570171620874E+03   -0.61099E-04   -0.61023E-04  3248   0.185E-03 0.208E-05
CGA:  18    -0.570171655007E+03   -0.34133E-04   -0.34133E-04  3248   0.110E-03-0.103E-06
CGA:  19    -0.570171676740E+03   -0.21732E-04   -0.21735E-04  3248   0.656E-04-0.291E-06
CGA:  20    -0.570171689411E+03   -0.12672E-04   -0.12683E-04  3248   0.415E-04-0.103E-05
CGA:  21    -0.570171696861E+03   -0.74496E-05   -0.74474E-05  3248   0.238E-04-0.841E-06
  33 F= -.57017170E+03 E0= -.57016642E+03  d E =-.120080E+00  mag=    70.0000
       N       E                     dE             d eps       ncg     rms          ort
SDA:   1    -0.569959080091E+03    0.21261E+00    0.00000E+00  3248   0.803E+00 0.000E+00
CGA:   2    -0.570088140958E+03   -0.12906E+00   -0.12911E+00  3248   0.355E+00 0.754E-03
CGA:   3    -0.570143869462E+03   -0.55729E-01   -0.55684E-01  3248   0.147E+00-0.493E-03
CGA:   4    -0.570167280391E+03   -0.23411E-01   -0.23418E-01  3248   0.546E-01 0.110E-03
CGA:   5    -0.570174655731E+03   -0.73753E-02   -0.73493E-02  3248   0.205E-01-0.936E-04
CGA:   6    -0.570177327585E+03   -0.26719E-02   -0.26767E-02  3248   0.509E-02 0.774E-05
CGA:   7    -0.570178115349E+03   -0.78776E-03   -0.78694E-03  3248   0.228E-02-0.127E-04
CGA:   8    -0.570178480276E+03   -0.36493E-03   -0.36510E-03  3248   0.101E-02 0.321E-05
CGA:   9    -0.570178639003E+03   -0.15873E-03   -0.15856E-03  3248   0.539E-03-0.612E-05
CGA:  10    -0.570178741125E+03   -0.10212E-03   -0.10212E-03  3248   0.296E-03-0.686E-06
CGA:  11    -0.570178798050E+03   -0.56925E-04   -0.56913E-04  3248   0.200E-03 0.105E-05
CGA:  12    -0.570178834240E+03   -0.36190E-04   -0.36178E-04  3248   0.125E-03 0.257E-05
CGA:  13    -0.570178858701E+03   -0.24461E-04   -0.24446E-04  3248   0.722E-04 0.933E-06
CGA:  14    -0.570178872402E+03   -0.13700E-04   -0.13701E-04  3248   0.478E-04-0.842E-07
CGA:  15    -0.570178880674E+03   -0.82721E-05   -0.82714E-05  3248   0.250E-04-0.249E-06
  34 F= -.57017888E+03 E0= -.57017351E+03  d E =-.718381E-02  mag=    70.0000
       N       E                     dE             d eps       ncg     rms          ort
SDA:   1    -0.568723370724E+03    0.14555E+01    0.00000E+00  3248   0.535E+01 0.000E+00
CGA:   2    -0.569571797367E+03   -0.84843E+00   -0.85231E+00  3248   0.239E+01 0.837E-01
CGA:   3    -0.569928680860E+03   -0.35688E+00   -0.35202E+00  3248   0.110E+01-0.408E-01
CGA:   4    -0.570090607713E+03   -0.16193E+00   -0.16177E+00  3248   0.399E+00-0.272E-02
CGA:   5    -0.570148191262E+03   -0.57584E-01   -0.57459E-01  3248   0.135E+00-0.149E-02
CGA:   6    -0.570165547510E+03   -0.17356E-01   -0.17456E-01  3248   0.421E-01 0.347E-03
CGA:   7    -0.570170736479E+03   -0.51890E-02   -0.50992E-02  3248   0.182E-01-0.141E-03
CGA:   8    -0.570173696977E+03   -0.29605E-02   -0.29618E-02  3248   0.730E-02 0.121E-03
CGA:   9    -0.570174930594E+03   -0.12336E-02   -0.12336E-02  3248   0.435E-02-0.489E-04
CGA:  10    -0.570175605146E+03   -0.67455E-03   -0.67515E-03  3248   0.273E-02 0.183E-04
CGA:  11    -0.570176077210E+03   -0.47206E-03   -0.47213E-03  3248   0.171E-02-0.586E-05
CGA:  12    -0.570176385524E+03   -0.30831E-03   -0.30820E-03  3248   0.113E-02 0.750E-05
CGA:  13    -0.570176603730E+03   -0.21821E-03   -0.21812E-03  3248   0.723E-03 0.434E-05
CGA:  14    -0.570176714590E+03   -0.11086E-03   -0.11095E-03  3248   0.463E-03 0.294E-05
CGA:  15    -0.570176797569E+03   -0.82980E-04   -0.82996E-04  3248   0.232E-03-0.755E-06
CGA:  16    -0.570176839385E+03   -0.41815E-04   -0.41805E-04  3248   0.162E-03 0.493E-06
CGA:  17    -0.570176865385E+03   -0.26000E-04   -0.25993E-04  3248   0.857E-04-0.509E-06
CGA:  18    -0.570176880854E+03   -0.15470E-04   -0.15472E-04  3248   0.591E-04-0.204E-06
CGA:  19    -0.570176890596E+03   -0.97412E-05   -0.97405E-05  3248   0.302E-04-0.105E-06
  35 F= -.57017689E+03 E0= -.57017121E+03  d E =0.199008E-02  mag=    70.0000
       N       E                     dE             d eps       ncg     rms          ort
SDA:   1    -0.570141040148E+03    0.35841E-01    0.00000E+00  3248   0.137E+00 0.000E+00
CGA:   2    -0.570158242705E+03   -0.17203E-01   -0.17459E-01  3248   0.822E-01 0.950E-03
CGA:   3    -0.570168973749E+03   -0.10731E-01   -0.10610E-01  3248   0.322E-01-0.585E-03
CGA:   4    -0.570173766945E+03   -0.47932E-02   -0.47961E-02  3248   0.122E-01 0.701E-04
CGA:   5    -0.570175488989E+03   -0.17220E-02   -0.17192E-02  3248   0.372E-02-0.450E-04
CGA:   6    -0.570175990766E+03   -0.50178E-03   -0.50247E-03  3248   0.138E-02 0.496E-05
CGA:   7    -0.570176147565E+03   -0.15680E-03   -0.15637E-03  3248   0.469E-03 0.764E-08
CGA:   8    -0.570176218112E+03   -0.70548E-04   -0.70568E-04  3248   0.216E-03 0.154E-05
CGA:   9    -0.570176252867E+03   -0.34754E-04   -0.34754E-04  3248   0.895E-04 0.690E-06
CGA:  10    -0.570176267193E+03   -0.14326E-04   -0.14326E-04  3248   0.629E-04-0.714E-06
CGA:  11    -0.570176277027E+03   -0.98342E-05   -0.98326E-05  3248   0.349E-04-0.600E-06
  36 F= -.57017628E+03 E0= -.57017056E+03  d E =0.613568E-03  mag=    70.0000
