       N       E                     dE             d eps       ncg     rms          ort
DAV:   1     0.964382309525E+04    0.96438E+04   -0.32133E+05  3248   0.180E+03
DAV:   2     0.102578587119E+04   -0.86180E+04   -0.81883E+04  3248   0.554E+02
DAV:   3    -0.496068714213E+03   -0.15219E+04   -0.14125E+04  3248   0.227E+02
DAV:   4    -0.690473553789E+03   -0.19440E+03   -0.18690E+03  3248   0.923E+01
DAV:   5    -0.700654461755E+03   -0.10181E+02   -0.98650E+01  3248   0.256E+01
SDA:   6    -0.195122808935E+03    0.50553E+03   -0.98650E+01  3248   0.301E+04 0.000E+00
CGA:   7    -0.491786721903E+03   -0.29666E+03   -0.34801E+03  3248   0.595E+03 0.389E+02
CGA:   8    -0.521899183074E+03   -0.30112E+02   -0.35222E+02  3248   0.200E+03-0.116E+01
CGA:   9    -0.537352604435E+03   -0.15453E+02   -0.13748E+02  3248   0.242E+03-0.174E+02
CGA:  10    -0.538081617071E+03   -0.72901E+00   -0.12060E+02  3248   0.257E+03-0.773E+02
CGA:  11    -0.542641631407E+03   -0.45600E+01   -0.79995E+01  3248   0.275E+03-0.116E+03
CGA:  12    -0.541405377624E+03    0.12363E+01   -0.59966E+01  3248   0.258E+03-0.133E+03
CGA:  13    -0.545373641895E+03   -0.39683E+01   -0.64097E+01  3248   0.207E+03-0.425E+02
CGA:  14    -0.543464211065E+03    0.19094E+01   -0.96973E+01  3248   0.325E+03-0.667E+02
CGA:  15    -0.547848238565E+03   -0.43840E+01   -0.76722E+01  3248   0.154E+03-0.114E+03
CGA:  16    -0.546926239772E+03    0.92200E+00   -0.31035E+01  3248   0.270E+03-0.121E+03
CGA:  17    -0.544613714096E+03    0.23125E+01   -0.16315E+02  3248   0.326E+03-0.119E+03
CGA:  18    -0.555898810954E+03   -0.11285E+02   -0.13092E+02  3248   0.177E+03 0.773E+01
CGA:  19    -0.559111065992E+03   -0.32123E+01   -0.10808E+02  3248   0.283E+03-0.228E+02
CGA:  20    -0.557546136206E+03    0.15649E+01   -0.12659E+02  3248   0.106E+03-0.774E+02
CGA:  21    -0.565120728282E+03   -0.75746E+01   -0.32808E+01  3248   0.364E+02 0.634E+02
CGA:  22    -0.566412755506E+03   -0.12920E+01   -0.15813E+01  3248   0.216E+02-0.128E+02
CGA:  23    -0.566991944203E+03   -0.57919E+00   -0.83224E+00  3248   0.169E+02-0.194E+01
CGA:  24    -0.567677484903E+03   -0.68554E+00   -0.56961E+00  3248   0.595E+01 0.516E+00
CGA:  25    -0.568009262203E+03   -0.33178E+00   -0.33396E+00  3248   0.396E+01-0.201E+00
CGA:  26    -0.568227095712E+03   -0.21783E+00   -0.27087E+00  3248   0.424E+01 0.123E+00
CGA:  27    -0.568512790297E+03   -0.28569E+00   -0.30549E+00  3248   0.277E+01-0.823E-01
CGA:  28    -0.568688140703E+03   -0.17535E+00   -0.16521E+00  3248   0.948E+00-0.322E-01
CGA:  29    -0.568778607187E+03   -0.90466E-01   -0.91024E-01  3248   0.785E+00 0.474E-01
CGA:  30    -0.568860989308E+03   -0.82382E-01   -0.82542E-01  3248   0.534E+00 0.384E-01
CGA:  31    -0.568921921584E+03   -0.60932E-01   -0.60967E-01  3248   0.358E+00-0.306E-02
CGA:  32    -0.568959153690E+03   -0.37232E-01   -0.37138E-01  3248   0.162E+00 0.243E-01
CGA:  33    -0.568977222232E+03   -0.18069E-01   -0.18073E-01  3248   0.831E-01-0.130E-02
CGA:  34    -0.568992763473E+03   -0.15541E-01   -0.15647E-01  3248   0.792E-01-0.120E-02
CGA:  35    -0.569001126708E+03   -0.83632E-02   -0.83624E-02  3248   0.370E-01 0.209E-02
CGA:  36    -0.569005972195E+03   -0.48455E-02   -0.48661E-02  3248   0.312E-01-0.725E-03
CGA:  37    -0.569010667878E+03   -0.46957E-02   -0.47758E-02  3248   0.210E-01-0.148E-02
CGA:  38    -0.569014714400E+03   -0.40465E-02   -0.38994E-02  3248   0.141E-01 0.154E-02
CGA:  39    -0.569016391269E+03   -0.16769E-02   -0.16738E-02  3248   0.973E-02-0.366E-03
CGA:  40    -0.569017701616E+03   -0.13103E-02   -0.13104E-02  3248   0.734E-02 0.981E-05
CGA:  41    -0.569018723817E+03   -0.10222E-02   -0.10216E-02  3248   0.470E-02 0.201E-04
CGA:  42    -0.569019488587E+03   -0.76477E-03   -0.76957E-03  3248   0.502E-02-0.868E-04
CGA:  43    -0.569020081917E+03   -0.59333E-03   -0.59335E-03  3248   0.340E-02-0.260E-04
CGA:  44    -0.569020619147E+03   -0.53723E-03   -0.54144E-03  3248   0.291E-02-0.936E-04
CGA:  45    -0.569021002878E+03   -0.38373E-03   -0.38488E-03  3248   0.251E-02-0.691E-04
CGA:  46    -0.569021274602E+03   -0.27172E-03   -0.27122E-03  3248   0.126E-02-0.450E-04
CGA:  47    -0.569021437876E+03   -0.16327E-03   -0.16354E-03  3248   0.825E-03-0.265E-04
CGA:  48    -0.569021559723E+03   -0.12185E-03   -0.12231E-03  3248   0.703E-03-0.166E-04
CGA:  49    -0.569021632019E+03   -0.72296E-04   -0.72294E-04  3248   0.474E-03-0.385E-05
CGA:  50    -0.569021701002E+03   -0.68984E-04   -0.68871E-04  3248   0.310E-03 0.403E-05
CGA:  51    -0.569021747209E+03   -0.46207E-04   -0.45949E-04  3248   0.216E-03 0.101E-04
SDA:  52    -0.569021774442E+03   -0.27233E-04   -0.27260E-04  3248   0.195E-03 0.975E-05
CGA:  53    -0.569021787489E+03   -0.13047E-04   -0.13170E-04  3248   0.853E-04 0.155E-05
CGA:  54    -0.569021813559E+03   -0.26070E-04   -0.24433E-04  3248   0.994E-04 0.990E-05
CGA:  55    -0.569021828978E+03   -0.15419E-04   -0.15353E-04  3248   0.750E-04 0.766E-05
CGA:  56    -0.569021845499E+03   -0.16521E-04   -0.15833E-04  3248   0.473E-04 0.104E-04
CGA:  57    -0.569021852079E+03   -0.65798E-05   -0.66243E-05  3248   0.374E-04 0.412E-05
   1 F= -.56902185E+03 E0= -.56900881E+03  d E =-.569022E+03  mag=    70.0000
       N       E                     dE             d eps       ncg     rms          ort
SDA:   1    -0.569024360573E+03   -0.25151E-02    0.00000E+00  3248   0.144E-01 0.000E+00
CGA:   2    -0.569025492741E+03   -0.11322E-02   -0.11292E-02  3248   0.677E-02 0.156E-04
CGA:   3    -0.569026558620E+03   -0.10659E-02   -0.10658E-02  3248   0.404E-02 0.194E-05
CGA:   4    -0.569026929077E+03   -0.37046E-03   -0.37033E-03  3248   0.129E-02-0.840E-05
CGA:   5    -0.569027091420E+03   -0.16234E-03   -0.16228E-03  3248   0.665E-03-0.119E-04
CGA:   6    -0.569027162190E+03   -0.70770E-04   -0.70725E-04  3248   0.233E-03-0.232E-05
CGA:   7    -0.569027183898E+03   -0.21708E-04   -0.21789E-04  3248   0.955E-04 0.246E-05
CGA:   8    -0.569027194541E+03   -0.10643E-04   -0.10728E-04  3248   0.302E-04 0.509E-05
CGA:   9    -0.569027198683E+03   -0.41423E-05   -0.41314E-05  3248   0.138E-04 0.428E-05
   2 F= -.56902720E+03 E0= -.56901416E+03  d E =-.534660E-02  mag=    70.0000
       N       E                     dE             d eps       ncg     rms          ort
SDA:   1    -0.552159404026E+03    0.16868E+02    0.00000E+00  3248   0.541E+02 0.000E+00
CGA:   2    -0.560783126287E+03   -0.86237E+01   -0.86334E+01  3248   0.483E+02 0.252E+00
CGA:   3    -0.565941553447E+03   -0.51584E+01   -0.52055E+01  3248   0.188E+02-0.172E+00
CGA:   4    -0.567764298165E+03   -0.18227E+01   -0.17062E+01  3248   0.743E+01-0.510E+00
CGA:   5    -0.568806539392E+03   -0.10422E+01   -0.10397E+01  3248   0.240E+01 0.102E+00
CGA:   6    -0.569095344329E+03   -0.28880E+00   -0.28819E+00  3248   0.109E+01-0.244E-01
CGA:   7    -0.569192278536E+03   -0.96934E-01   -0.97231E-01  3248   0.475E+00 0.211E-03
CGA:   8    -0.569235749213E+03   -0.43471E-01   -0.43418E-01  3248   0.143E+00 0.191E-03
CGA:   9    -0.569257846307E+03   -0.22097E-01   -0.22015E-01  3248   0.881E-01 0.202E-02
CGA:  10    -0.569268629291E+03   -0.10783E-01   -0.10788E-01  3248   0.502E-01 0.500E-03
CGA:  11    -0.569273519160E+03   -0.48899E-02   -0.49125E-02  3248   0.218E-01 0.183E-03
CGA:  12    -0.569276683096E+03   -0.31639E-02   -0.31601E-02  3248   0.146E-01 0.104E-03
CGA:  13    -0.569278635041E+03   -0.19519E-02   -0.19529E-02  3248   0.720E-02-0.105E-03
CGA:  14    -0.569279553398E+03   -0.91836E-03   -0.91829E-03  3248   0.500E-02-0.456E-05
CGA:  15    -0.569280164599E+03   -0.61120E-03   -0.61126E-03  3248   0.259E-02 0.546E-05
CGA:  16    -0.569280549053E+03   -0.38445E-03   -0.38370E-03  3248   0.167E-02 0.324E-04
CGA:  17    -0.569280766115E+03   -0.21706E-03   -0.21701E-03  3248   0.898E-03 0.367E-04
CGA:  18    -0.569280893024E+03   -0.12691E-03   -0.12667E-03  3248   0.771E-03 0.215E-04
CGA:  19    -0.569281013589E+03   -0.12057E-03   -0.12017E-03  3248   0.473E-03 0.156E-04
CGA:  20    -0.569281096152E+03   -0.82563E-04   -0.82601E-04  3248   0.402E-03-0.951E-06
CGA:  21    -0.569281159059E+03   -0.62907E-04   -0.63122E-04  3248   0.344E-03-0.823E-05
CGA:  22    -0.569281201651E+03   -0.42592E-04   -0.42533E-04  3248   0.245E-03-0.956E-05
CGA:  23    -0.569281241246E+03   -0.39595E-04   -0.39927E-04  3248   0.134E-03-0.931E-05
CGA:  24    -0.569281260839E+03   -0.19593E-04   -0.19652E-04  3248   0.924E-04-0.308E-05
CGA:  25    -0.569281272214E+03   -0.11375E-04   -0.11376E-04  3248   0.643E-04 0.973E-07
CGA:  26    -0.569281280931E+03   -0.87167E-05   -0.87144E-05  3248   0.339E-04 0.163E-05
   3 F= -.56928128E+03 E0= -.56926815E+03  d E =-.254082E+00  mag=    70.0000
       N       E                     dE             d eps       ncg     rms          ort
SDA:   1    -0.561837469707E+03    0.74438E+01    0.00000E+00  3248   0.231E+02 0.000E+00
CGA:   2    -0.565706013637E+03   -0.38685E+01   -0.38950E+01  3248   0.221E+02-0.526E+00
CGA:   3    -0.567905822433E+03   -0.21998E+01   -0.22411E+01  3248   0.875E+01 0.743E-01
CGA:   4    -0.568729989130E+03   -0.82417E+00   -0.80535E+00  3248   0.310E+01-0.389E-01
CGA:   5    -0.569171606186E+03   -0.44162E+00   -0.44160E+00  3248   0.102E+01 0.141E-02
CGA:   6    -0.569286911932E+03   -0.11531E+00   -0.11536E+00  3248   0.421E+00 0.608E-03
CGA:   7    -0.569328145271E+03   -0.41233E-01   -0.41388E-01  3248   0.182E+00 0.719E-03
CGA:   8    -0.569346665888E+03   -0.18521E-01   -0.18476E-01  3248   0.624E-01-0.213E-03
CGA:   9    -0.569356214859E+03   -0.95490E-02   -0.95387E-02  3248   0.351E-01 0.308E-03
CGA:  10    -0.569360278729E+03   -0.40639E-02   -0.40659E-02  3248   0.184E-01 0.586E-04
CGA:  11    -0.569362308774E+03   -0.20300E-02   -0.20327E-02  3248   0.970E-02 0.440E-04
CGA:  12    -0.569363795541E+03   -0.14868E-02   -0.14862E-02  3248   0.600E-02 0.109E-04
CGA:  13    -0.569364670998E+03   -0.87546E-03   -0.87557E-03  3248   0.360E-02-0.125E-04
CGA:  14    -0.569365118899E+03   -0.44790E-03   -0.44790E-03  3248   0.262E-02-0.509E-05
CGA:  15    -0.569365478268E+03   -0.35937E-03   -0.35927E-03  3248   0.137E-02 0.984E-05
CGA:  16    -0.569365717723E+03   -0.23946E-03   -0.23879E-03  3248   0.993E-03 0.153E-04
CGA:  17    -0.569365844001E+03   -0.12628E-03   -0.12638E-03  3248   0.689E-03 0.128E-04
CGA:  18    -0.569365949077E+03   -0.10508E-03   -0.10494E-03  3248   0.518E-03 0.791E-05
CGA:  19    -0.569366031683E+03   -0.82606E-04   -0.82562E-04  3248   0.322E-03 0.184E-05
CGA:  20    -0.569366089542E+03   -0.57859E-04   -0.58024E-04  3248   0.338E-03-0.367E-05
CGA:  21    -0.569366128039E+03   -0.38497E-04   -0.38419E-04  3248   0.168E-03-0.363E-05
CGA:  22    -0.569366158135E+03   -0.30097E-04   -0.30283E-04  3248   0.124E-03-0.403E-05
CGA:  23    -0.569366174410E+03   -0.16275E-04   -0.16268E-04  3248   0.665E-04-0.159E-05
CGA:  24    -0.569366182504E+03   -0.80935E-05   -0.80834E-05  3248   0.442E-04-0.623E-06
   4 F= -.56936618E+03 E0= -.56935402E+03  d E =-.849016E-01  mag=    70.0000
       N       E                     dE             d eps       ncg     rms          ort
SDA:   1    -0.542191209023E+03    0.27175E+02    0.00000E+00  3248   0.868E+02 0.000E+00
CGA:   2    -0.557728440306E+03   -0.15537E+02   -0.15563E+02  3248   0.618E+02-0.389E+00
CGA:   3    -0.564479689064E+03   -0.67512E+01   -0.68648E+01  3248   0.259E+02 0.462E+00
CGA:   4    -0.567210212118E+03   -0.27305E+01   -0.26051E+01  3248   0.123E+02-0.750E+00
CGA:   5    -0.568713908833E+03   -0.15037E+01   -0.15051E+01  3248   0.376E+01 0.451E-01
CGA:   6    -0.569106998118E+03   -0.39309E+00   -0.39153E+00  3248   0.182E+01-0.293E-01
CGA:   7    -0.569294008751E+03   -0.18701E+00   -0.18729E+00  3248   0.459E+00 0.698E-04
CGA:   8    -0.569361780254E+03   -0.67772E-01   -0.67841E-01  3248   0.306E+00-0.295E-02
CGA:   9    -0.569390771956E+03   -0.28992E-01   -0.29317E-01  3248   0.154E+00 0.823E-03
CGA:  10    -0.569410836923E+03   -0.20065E-01   -0.20070E-01  3248   0.639E-01 0.113E-02
CGA:  11    -0.569419991822E+03   -0.91549E-02   -0.91569E-02  3248   0.486E-01-0.801E-04
CGA:  12    -0.569426816473E+03   -0.68247E-02   -0.68208E-02  3248   0.274E-01 0.319E-03
CGA:  13    -0.569430598270E+03   -0.37818E-02   -0.37802E-02  3248   0.179E-01 0.225E-03
CGA:  14    -0.569433170005E+03   -0.25717E-02   -0.25712E-02  3248   0.138E-01 0.395E-04
CGA:  15    -0.569434870748E+03   -0.17007E-02   -0.17012E-02  3248   0.745E-02 0.131E-04
CGA:  16    -0.569436191439E+03   -0.13207E-02   -0.13226E-02  3248   0.548E-02-0.417E-04
CGA:  17    -0.569436941949E+03   -0.75051E-03   -0.75052E-03  3248   0.363E-02-0.100E-04
CGA:  18    -0.569437578579E+03   -0.63663E-03   -0.63706E-03  3248   0.342E-02-0.101E-04
CGA:  19    -0.569438011470E+03   -0.43289E-03   -0.43302E-03  3248   0.190E-02 0.935E-05
CGA:  20    -0.569438330551E+03   -0.31908E-03   -0.31858E-03  3248   0.170E-02 0.163E-04
CGA:  21    -0.569438558002E+03   -0.22745E-03   -0.22751E-03  3248   0.864E-03 0.118E-04
CGA:  22    -0.569438709902E+03   -0.15190E-03   -0.15178E-03  3248   0.586E-03 0.363E-05
CGA:  23    -0.569438783432E+03   -0.73529E-04   -0.73499E-04  3248   0.351E-03-0.215E-05
CGA:  24    -0.569438827977E+03   -0.44545E-04   -0.44472E-04  3248   0.181E-03-0.594E-05
CGA:  25    -0.569438855866E+03   -0.27890E-04   -0.28018E-04  3248   0.131E-03-0.671E-05
CGA:  26    -0.569438872027E+03   -0.16160E-04   -0.16099E-04  3248   0.712E-04-0.539E-05
CGA:  27    -0.569438884049E+03   -0.12023E-04   -0.12148E-04  3248   0.500E-04-0.324E-05
CGA:  28    -0.569438890325E+03   -0.62755E-05   -0.62646E-05  3248   0.371E-04-0.114E-05
   5 F= -.56943889E+03 E0= -.56942794E+03  d E =-.727078E-01  mag=    70.0000
       N       E                     dE             d eps       ncg     rms          ort
SDA:   1    -0.563399922665E+03    0.60390E+01    0.00000E+00  3248   0.215E+02 0.000E+00
CGA:   2    -0.566551834331E+03   -0.31519E+01   -0.31531E+01  3248   0.143E+02-0.104E+00
CGA:   3    -0.568389674213E+03   -0.18378E+01   -0.18433E+01  3248   0.638E+01 0.204E+00
CGA:   4    -0.568964147619E+03   -0.57447E+00   -0.55493E+00  3248   0.277E+01-0.134E-01
CGA:   5    -0.569359752268E+03   -0.39560E+00   -0.39558E+00  3248   0.714E+00 0.206E-02
CGA:   6    -0.569458176034E+03   -0.98424E-01   -0.98425E-01  3248   0.393E+00 0.389E-02
CGA:   7    -0.569493462991E+03   -0.35287E-01   -0.35205E-01  3248   0.112E+00-0.405E-04
CGA:   8    -0.569507043209E+03   -0.13580E-01   -0.13564E-01  3248   0.584E-01-0.320E-03
CGA:   9    -0.569513358477E+03   -0.63153E-02   -0.63186E-02  3248   0.311E-01 0.114E-03
CGA:  10    -0.569517644737E+03   -0.42863E-02   -0.42854E-02  3248   0.114E-01 0.137E-03
CGA:  11    -0.569519298093E+03   -0.16534E-02   -0.16534E-02  3248   0.880E-02-0.586E-05
CGA:  12    -0.569520355909E+03   -0.10578E-02   -0.10571E-02  3248   0.501E-02-0.440E-04
CGA:  13    -0.569520956515E+03   -0.60061E-03   -0.60044E-03  3248   0.265E-02-0.260E-04
CGA:  14    -0.569521366744E+03   -0.41023E-03   -0.41077E-03  3248   0.167E-02-0.227E-04
CGA:  15    -0.569521591418E+03   -0.22467E-03   -0.22466E-03  3248   0.113E-02 0.708E-05
CGA:  16    -0.569521744387E+03   -0.15297E-03   -0.15295E-03  3248   0.700E-03 0.181E-04
CGA:  17    -0.569521834319E+03   -0.89932E-04   -0.90064E-04  3248   0.457E-03 0.170E-04
CGA:  18    -0.569521906218E+03   -0.71899E-04   -0.71660E-04  3248   0.338E-03 0.122E-04
CGA:  19    -0.569521960276E+03   -0.54058E-04   -0.53990E-04  3248   0.204E-03 0.324E-05
CGA:  20    -0.569521993263E+03   -0.32987E-04   -0.33091E-04  3248   0.219E-03-0.424E-05
CGA:  21    -0.569522019863E+03   -0.26600E-04   -0.26514E-04  3248   0.114E-03-0.653E-05
CGA:  22    -0.569522039327E+03   -0.19463E-04   -0.19783E-04  3248   0.944E-04-0.746E-05
CGA:  23    -0.569522050260E+03   -0.10933E-04   -0.10887E-04  3248   0.471E-04-0.306E-05
CGA:  24    -0.569522057075E+03   -0.68158E-05   -0.68202E-05  3248   0.357E-04-0.357E-06
   6 F= -.56952206E+03 E0= -.56951121E+03  d E =-.831668E-01  mag=    70.0000
       N       E                     dE             d eps       ncg     rms          ort
SDA:   1    -0.569132508898E+03    0.38954E+00    0.00000E+00  3248   0.142E+01 0.000E+00
CGA:   2    -0.569338018759E+03   -0.20551E+00   -0.20552E+00  3248   0.874E+00-0.425E-03
CGA:   3    -0.569473215732E+03   -0.13520E+00   -0.13515E+00  3248   0.335E+00 0.162E-02
CGA:   4    -0.569505957329E+03   -0.32742E-01   -0.32506E-01  3248   0.217E+00-0.545E-03
CGA:   5    -0.569528290933E+03   -0.22334E-01   -0.22366E-01  3248   0.400E-01 0.103E-03
CGA:   6    -0.569535040912E+03   -0.67500E-02   -0.67497E-02  3248   0.149E-01 0.113E-04
CGA:   7    -0.569536510986E+03   -0.14701E-02   -0.14715E-02  3248   0.809E-02 0.187E-04
CGA:   8    -0.569537345776E+03   -0.83479E-03   -0.83469E-03  3248   0.271E-02 0.108E-04
CGA:   9    -0.569537791403E+03   -0.44563E-03   -0.44534E-03  3248   0.139E-02 0.926E-05
CGA:  10    -0.569537934646E+03   -0.14324E-03   -0.14320E-03  3248   0.790E-03-0.450E-06
CGA:  11    -0.569538048852E+03   -0.11421E-03   -0.11423E-03  3248   0.458E-03-0.268E-05
CGA:  12    -0.569538108223E+03   -0.59371E-04   -0.59355E-04  3248   0.309E-03-0.436E-05
CGA:  13    -0.569538149618E+03   -0.41395E-04   -0.41401E-04  3248   0.189E-03-0.375E-05
CGA:  14    -0.569538176100E+03   -0.26482E-04   -0.26485E-04  3248   0.122E-03-0.408E-06
CGA:  15    -0.569538193483E+03   -0.17383E-04   -0.17361E-04  3248   0.906E-04 0.238E-05
CGA:  16    -0.569538204579E+03   -0.11096E-04   -0.11127E-04  3248   0.512E-04 0.223E-05
CGA:  17    -0.569538213071E+03   -0.84927E-05   -0.84404E-05  3248   0.344E-04 0.193E-05
   7 F= -.56953821E+03 E0= -.56952757E+03  d E =-.161560E-01  mag=    70.0000
       N       E                     dE             d eps       ncg     rms          ort
SDA:   1    -0.546138610950E+03    0.23400E+02    0.00000E+00  3248   0.774E+02 0.000E+00
CGA:   2    -0.557761346614E+03   -0.11623E+02   -0.11616E+02  3248   0.590E+02 0.505E+00
CGA:   3    -0.564467744372E+03   -0.67064E+01   -0.68502E+01  3248   0.292E+02 0.141E+01
CGA:   4    -0.567524623483E+03   -0.30569E+01   -0.28518E+01  3248   0.981E+01-0.908E+00
CGA:   5    -0.568928127164E+03   -0.14035E+01   -0.14057E+01  3248   0.284E+01-0.946E-01
CGA:   6    -0.569237762562E+03   -0.30964E+00   -0.30927E+00  3248   0.198E+01-0.742E-02
CGA:   7    -0.569402261366E+03   -0.16450E+00   -0.16846E+00  3248   0.501E+00-0.969E-02
CGA:   8    -0.569467308453E+03   -0.65047E-01   -0.65041E-01  3248   0.251E+00-0.647E-02
CGA:   9    -0.569493101389E+03   -0.25793E-01   -0.26091E-01  3248   0.142E+00 0.279E-02
CGA:  10    -0.569509827068E+03   -0.16726E-01   -0.16736E-01  3248   0.727E-01 0.263E-03
CGA:  11    -0.569518416957E+03   -0.85899E-02   -0.86084E-02  3248   0.331E-01 0.700E-03
CGA:  12    -0.569523511313E+03   -0.50944E-02   -0.50903E-02  3248   0.289E-01 0.133E-03
CGA:  13    -0.569526614801E+03   -0.31035E-02   -0.31246E-02  3248   0.123E-01 0.326E-03
CGA:  14    -0.569528756235E+03   -0.21414E-02   -0.21410E-02  3248   0.950E-02 0.168E-04
CGA:  15    -0.569529903156E+03   -0.11469E-02   -0.11483E-02  3248   0.590E-02 0.616E-04
CGA:  16    -0.569530780982E+03   -0.87783E-03   -0.87782E-03  3248   0.370E-02-0.256E-05
CGA:  17    -0.569531341428E+03   -0.56045E-03   -0.56019E-03  3248   0.262E-02 0.390E-05
CGA:  18    -0.569531673583E+03   -0.33216E-03   -0.33212E-03  3248   0.170E-02-0.817E-05
CGA:  19    -0.569531965890E+03   -0.29231E-03   -0.29239E-03  3248   0.115E-02-0.311E-05
CGA:  20    -0.569532122066E+03   -0.15618E-03   -0.15618E-03  3248   0.846E-03 0.402E-06
CGA:  21    -0.569532244525E+03   -0.12246E-03   -0.12239E-03  3248   0.535E-03 0.615E-05
CGA:  22    -0.569532322660E+03   -0.78135E-04   -0.78100E-04  3248   0.312E-03 0.372E-05
CGA:  23    -0.569532371226E+03   -0.48566E-04   -0.48537E-04  3248   0.244E-03 0.153E-05
CGA:  24    -0.569532400167E+03   -0.28941E-04   -0.28911E-04  3248   0.116E-03-0.137E-05
CGA:  25    -0.569532422040E+03   -0.21873E-04   -0.22084E-04  3248   0.941E-04-0.378E-05
CGA:  26    -0.569532432913E+03   -0.10873E-04   -0.10816E-04  3248   0.628E-04-0.293E-05
CGA:  27    -0.569532444424E+03   -0.11511E-04   -0.11704E-04  3248   0.492E-04-0.347E-05
CGA:  28    -0.569532450753E+03   -0.63292E-05   -0.63243E-05  3248   0.381E-04-0.147E-05
   8 F= -.56953245E+03 E0= -.56952261E+03  d E =0.576232E-02  mag=    70.0000
       N       E                     dE             d eps       ncg     rms          ort
SDA:   1    -0.551434062975E+03    0.18098E+02    0.00000E+00  3248   0.699E+02 0.000E+00
CGA:   2    -0.560697723216E+03   -0.92637E+01   -0.92522E+01  3248   0.399E+02-0.615E+00
CGA:   3    -0.565730100167E+03   -0.50324E+01   -0.50967E+01  3248   0.189E+02 0.230E+01
CGA:   4    -0.567845437330E+03   -0.21153E+01   -0.19722E+01  3248   0.888E+01-0.509E+00
CGA:   5    -0.568992038052E+03   -0.11466E+01   -0.11455E+01  3248   0.268E+01-0.982E-01
CGA:   6    -0.569321651071E+03   -0.32961E+00   -0.32996E+00  3248   0.116E+01 0.109E-01
CGA:   7    -0.569446588170E+03   -0.12494E+00   -0.12425E+00  3248   0.508E+00-0.508E-02
CGA:   8    -0.569494294864E+03   -0.47707E-01   -0.47214E-01  3248   0.213E+00-0.633E-03
CGA:   9    -0.569517496242E+03   -0.23201E-01   -0.23282E-01  3248   0.100E+00 0.105E-02
CGA:  10    -0.569532956578E+03   -0.15460E-01   -0.15456E-01  3248   0.481E-01 0.166E-03
CGA:  11    -0.569538008241E+03   -0.50517E-02   -0.50792E-02  3248   0.325E-01 0.253E-03
CGA:  12    -0.569542075718E+03   -0.40675E-02   -0.40684E-02  3248   0.169E-01 0.407E-04
CGA:  13    -0.569544499907E+03   -0.24242E-02   -0.24241E-02  3248   0.964E-02-0.151E-04
CGA:  14    -0.569545833739E+03   -0.13338E-02   -0.13337E-02  3248   0.700E-02-0.746E-06
CGA:  15    -0.569546638380E+03   -0.80464E-03   -0.80556E-03  3248   0.430E-02 0.200E-04
CGA:  16    -0.569547257147E+03   -0.61877E-03   -0.61849E-03  3248   0.273E-02 0.214E-04
CGA:  17    -0.569547681848E+03   -0.42470E-03   -0.42388E-03  3248   0.168E-02 0.331E-04
CGA:  18    -0.569547908811E+03   -0.22696E-03   -0.22696E-03  3248   0.146E-02 0.127E-04
CGA:  19    -0.569548097495E+03   -0.18868E-03   -0.18874E-03  3248   0.806E-03 0.991E-05
CGA:  20    -0.569548226803E+03   -0.12931E-03   -0.12928E-03  3248   0.548E-03 0.646E-06
CGA:  21    -0.569548312111E+03   -0.85308E-04   -0.85485E-04  3248   0.480E-03-0.817E-05
CGA:  22    -0.569548368536E+03   -0.56426E-04   -0.56261E-04  3248   0.283E-03-0.937E-05
CGA:  23    -0.569548409115E+03   -0.40579E-04   -0.40660E-04  3248   0.186E-03-0.695E-05
CGA:  24    -0.569548437421E+03   -0.28306E-04   -0.28398E-04  3248   0.120E-03-0.419E-05
CGA:  25    -0.569548452106E+03   -0.14685E-04   -0.14688E-04  3248   0.913E-04 0.248E-06
CGA:  26    -0.569548464435E+03   -0.12329E-04   -0.12331E-04  3248   0.556E-04 0.208E-05
CGA:  27    -0.569548473699E+03   -0.92639E-05   -0.91971E-05  3248   0.382E-04 0.256E-05
   9 F= -.56954847E+03 E0= -.56953879E+03  d E =-.160229E-01  mag=    70.0000
       N       E                     dE             d eps       ncg     rms          ort
SDA:   1    -0.566109228181E+03    0.34392E+01    0.00000E+00  3248   0.132E+02 0.000E+00
CGA:   2    -0.567976465133E+03   -0.18672E+01   -0.18672E+01  3248   0.653E+01 0.312E-02
CGA:   3    -0.569065370196E+03   -0.10889E+01   -0.10888E+01  3248   0.228E+01 0.140E-02
CGA:   4    -0.569477348853E+03   -0.41198E+00   -0.41195E+00  3248   0.689E+00 0.622E-03
CGA:   5    -0.569568086629E+03   -0.90738E-01   -0.90676E-01  3248   0.417E+00-0.259E-02
CGA:   6    -0.569602601311E+03   -0.34515E-01   -0.34998E-01  3248   0.149E+00-0.169E-02
CGA:   7    -0.569619407182E+03   -0.16806E-01   -0.16799E-01  3248   0.407E-01-0.118E-03
CGA:   8    -0.569626079392E+03   -0.66722E-02   -0.66795E-02  3248   0.260E-01-0.197E-03
CGA:   9    -0.569628629883E+03   -0.25505E-02   -0.25486E-02  3248   0.117E-01-0.317E-04
CGA:  10    -0.569630195542E+03   -0.15657E-02   -0.15657E-02  3248   0.720E-02 0.138E-04
CGA:  11    -0.569631012161E+03   -0.81662E-03   -0.81686E-03  3248   0.355E-02 0.139E-04
CGA:  12    -0.569631587566E+03   -0.57541E-03   -0.57474E-03  3248   0.218E-02 0.272E-04
CGA:  13    -0.569631864477E+03   -0.27691E-03   -0.27710E-03  3248   0.143E-02 0.175E-04
CGA:  14    -0.569632046697E+03   -0.18222E-03   -0.18228E-03  3248   0.988E-03 0.570E-05
CGA:  15    -0.569632182708E+03   -0.13601E-03   -0.13603E-03  3248   0.484E-03-0.865E-05
CGA:  16    -0.569632270050E+03   -0.87342E-04   -0.87894E-04  3248   0.433E-03-0.118E-04
CGA:  17    -0.569632312984E+03   -0.42934E-04   -0.42667E-04  3248   0.223E-03-0.683E-05
CGA:  18    -0.569632349408E+03   -0.36424E-04   -0.36530E-04  3248   0.160E-03-0.345E-05
CGA:  19    -0.569632370197E+03   -0.20789E-04   -0.20796E-04  3248   0.914E-04 0.119E-05
CGA:  20    -0.569632384436E+03   -0.14238E-04   -0.14180E-04  3248   0.770E-04 0.352E-05
CGA:  21    -0.569632394126E+03   -0.96909E-05   -0.97384E-05  3248   0.433E-04 0.295E-05
  10 F= -.56963239E+03 E0= -.56962266E+03  d E =-.839204E-01  mag=    70.0000
       N       E                     dE             d eps       ncg     rms          ort
SDA:   1    -0.569564888976E+03    0.67495E-01    0.00000E+00  3248   0.269E+00 0.000E+00
CGA:   2    -0.569602838337E+03   -0.37949E-01   -0.37949E-01  3248   0.135E+00-0.113E-04
CGA:   3    -0.569623592675E+03   -0.20754E-01   -0.20755E-01  3248   0.560E-01-0.167E-04
CGA:   4    -0.569630063853E+03   -0.64712E-02   -0.64800E-02  3248   0.406E-01 0.103E-03
CGA:   5    -0.569633653868E+03   -0.35900E-02   -0.35780E-02  3248   0.856E-02 0.170E-05
CGA:   6    -0.569634965461E+03   -0.13116E-02   -0.13114E-02  3248   0.334E-02 0.592E-05
CGA:   7    -0.569635316245E+03   -0.35078E-03   -0.35085E-03  3248   0.138E-02 0.336E-05
CGA:   8    -0.569635466896E+03   -0.15065E-03   -0.15072E-03  3248   0.733E-03 0.228E-05
CGA:   9    -0.569635552633E+03   -0.85737E-04   -0.85739E-04  3248   0.332E-03 0.251E-06
CGA:  10    -0.569635595883E+03   -0.43251E-04   -0.43250E-04  3248   0.161E-03-0.103E-06
CGA:  11    -0.569635618401E+03   -0.22518E-04   -0.22526E-04  3248   0.119E-03-0.120E-05
CGA:  12    -0.569635634290E+03   -0.15890E-04   -0.15891E-04  3248   0.753E-04-0.912E-06
CGA:  13    -0.569635643068E+03   -0.87773E-05   -0.87677E-05  3248   0.497E-04-0.607E-06
  11 F= -.56963564E+03 E0= -.56962593E+03  d E =-.324894E-02  mag=    70.0000
       N       E                     dE             d eps       ncg     rms          ort
SDA:   1    -0.548941770086E+03    0.20694E+02    0.00000E+00  3248   0.726E+02 0.000E+00
CGA:   2    -0.560244834823E+03   -0.11303E+02   -0.11329E+02  3248   0.444E+02-0.703E+00
CGA:   3    -0.565497676453E+03   -0.52528E+01   -0.53533E+01  3248   0.200E+02 0.302E+01
CGA:   4    -0.567844869781E+03   -0.23472E+01   -0.22602E+01  3248   0.108E+02-0.792E+00
CGA:   5    -0.569033324726E+03   -0.11885E+01   -0.11747E+01  3248   0.303E+01-0.223E+00
CGA:   6    -0.569434302494E+03   -0.40098E+00   -0.40087E+00  3248   0.109E+01 0.195E-01
CGA:   7    -0.569570425983E+03   -0.13612E+00   -0.13622E+00  3248   0.342E+00 0.544E-02
CGA:   8    -0.569616767223E+03   -0.46341E-01   -0.46374E-01  3248   0.186E+00-0.560E-02
CGA:   9    -0.569641549328E+03   -0.24782E-01   -0.24773E-01  3248   0.945E-01 0.135E-02
CGA:  10    -0.569650916111E+03   -0.93668E-02   -0.94488E-02  3248   0.576E-01 0.437E-03
CGA:  11    -0.569657951622E+03   -0.70355E-02   -0.70417E-02  3248   0.305E-01 0.302E-03
CGA:  12    -0.569663125141E+03   -0.51735E-02   -0.51685E-02  3248   0.165E-01 0.946E-04
CGA:  13    -0.569666056506E+03   -0.29314E-02   -0.29290E-02  3248   0.115E-01 0.428E-04
CGA:  14    -0.569668011888E+03   -0.19554E-02   -0.19537E-02  3248   0.799E-02 0.366E-04
CGA:  15    -0.569669340435E+03   -0.13285E-02   -0.13275E-02  3248   0.533E-02 0.286E-04
CGA:  16    -0.569670067524E+03   -0.72709E-03   -0.72715E-03  3248   0.428E-02 0.232E-04
CGA:  17    -0.569670608714E+03   -0.54119E-03   -0.54113E-03  3248   0.259E-02 0.122E-05
CGA:  18    -0.569671043714E+03   -0.43500E-03   -0.43481E-03  3248   0.145E-02 0.432E-05
CGA:  19    -0.569671297608E+03   -0.25389E-03   -0.25396E-03  3248   0.103E-02-0.318E-05
CGA:  20    -0.569671465344E+03   -0.16774E-03   -0.16788E-03  3248   0.606E-03-0.549E-05
CGA:  21    -0.569671562712E+03   -0.97368E-04   -0.97427E-04  3248   0.441E-03-0.280E-05
CGA:  22    -0.569671613146E+03   -0.50434E-04   -0.50433E-04  3248   0.257E-03-0.201E-06
CGA:  23    -0.569671647366E+03   -0.34221E-04   -0.34222E-04  3248   0.127E-03 0.274E-06
CGA:  24    -0.569671670127E+03   -0.22760E-04   -0.22773E-04  3248   0.823E-04-0.333E-06
CGA:  25    -0.569671683180E+03   -0.13053E-04   -0.13059E-04  3248   0.526E-04-0.365E-06
CGA:  26    -0.569671692100E+03   -0.89199E-05   -0.89447E-05  3248   0.427E-04-0.903E-06
  12 F= -.56967169E+03 E0= -.56966246E+03  d E =-.360490E-01  mag=    70.0000
       N       E                     dE             d eps       ncg     rms          ort
SDA:   1    -0.550193696530E+03    0.19478E+02    0.00000E+00  3248   0.724E+02 0.000E+00
CGA:   2    -0.560005834215E+03   -0.98121E+01   -0.98077E+01  3248   0.431E+02-0.290E+00
CGA:   3    -0.565163218538E+03   -0.51574E+01   -0.52859E+01  3248   0.231E+02 0.203E+01
CGA:   4    -0.567589202171E+03   -0.24260E+01   -0.23199E+01  3248   0.957E+01-0.331E+00
CGA:   5    -0.568816569141E+03   -0.12274E+01   -0.12155E+01  3248   0.367E+01-0.421E+00
CGA:   6    -0.569191142027E+03   -0.37457E+00   -0.37796E+00  3248   0.133E+01 0.189E-01
CGA:   7    -0.569339458266E+03   -0.14832E+00   -0.14909E+00  3248   0.723E+00 0.692E-02
CGA:   8    -0.569400513538E+03   -0.61055E-01   -0.59928E-01  3248   0.224E+00 0.332E-02
CGA:   9    -0.569433491152E+03   -0.32978E-01   -0.32954E-01  3248   0.120E+00 0.109E-02
CGA:  10    -0.569447675704E+03   -0.14185E-01   -0.14249E-01  3248   0.726E-01 0.146E-02
CGA:  11    -0.569455704675E+03   -0.80290E-02   -0.80827E-02  3248   0.345E-01 0.649E-03
CGA:  12    -0.569460802437E+03   -0.50978E-02   -0.50906E-02  3248   0.209E-01 0.322E-03
CGA:  13    -0.569464039238E+03   -0.32368E-02   -0.32301E-02  3248   0.153E-01 0.224E-03
CGA:  14    -0.569465960131E+03   -0.19209E-02   -0.19234E-02  3248   0.863E-02 0.113E-03
CGA:  15    -0.569467420647E+03   -0.14605E-02   -0.14579E-02  3248   0.649E-02 0.567E-04
CGA:  16    -0.569468314765E+03   -0.89412E-03   -0.89408E-03  3248   0.389E-02 0.169E-04
CGA:  17    -0.569468991725E+03   -0.67696E-03   -0.67569E-03  3248   0.250E-02 0.252E-04
CGA:  18    -0.569469316532E+03   -0.32481E-03   -0.32479E-03  3248   0.176E-02-0.153E-05
CGA:  19    -0.569469593204E+03   -0.27667E-03   -0.27677E-03  3248   0.942E-03-0.408E-05
CGA:  20    -0.569469755179E+03   -0.16197E-03   -0.16191E-03  3248   0.703E-03 0.121E-05
CGA:  21    -0.569469851894E+03   -0.96716E-04   -0.96714E-04  3248   0.463E-03-0.239E-06
CGA:  22    -0.569469919703E+03   -0.67808E-04   -0.67822E-04  3248   0.258E-03-0.117E-05
CGA:  23    -0.569469961492E+03   -0.41790E-04   -0.41793E-04  3248   0.178E-03-0.924E-07
CGA:  24    -0.569469986316E+03   -0.24824E-04   -0.24822E-04  3248   0.106E-03-0.120E-05
CGA:  25    -0.569470003474E+03   -0.17157E-04   -0.17198E-04  3248   0.808E-04-0.180E-05
CGA:  26    -0.569470014559E+03   -0.11086E-04   -0.11082E-04  3248   0.532E-04-0.130E-05
CGA:  27    -0.569470023918E+03   -0.93581E-05   -0.93934E-05  3248   0.388E-04-0.938E-06
  13 F= -.56947002E+03 E0= -.56946120E+03  d E =0.201668E+00  mag=    70.0000
       N       E                     dE             d eps       ncg     rms          ort
SDA:   1    -0.564968129408E+03    0.45019E+01    0.00000E+00  3248   0.196E+02 0.000E+00
CGA:   2    -0.567437486729E+03   -0.24694E+01   -0.24694E+01  3248   0.817E+01 0.866E-03
CGA:   3    -0.568877914685E+03   -0.14404E+01   -0.14403E+01  3248   0.318E+01 0.291E-02
CGA:   4    -0.569463083813E+03   -0.58517E+00   -0.58510E+00  3248   0.980E+00 0.134E-02
CGA:   5    -0.569593036425E+03   -0.12995E+00   -0.12990E+00  3248   0.474E+00-0.138E-02
CGA:   6    -0.569640533504E+03   -0.47497E-01   -0.47014E-01  3248   0.192E+00-0.445E-03
CGA:   7    -0.569661361926E+03   -0.20828E-01   -0.20878E-01  3248   0.589E-01 0.292E-03
CGA:   8    -0.569670444007E+03   -0.90821E-02   -0.90815E-02  3248   0.316E-01 0.632E-04
CGA:   9    -0.569674029080E+03   -0.35851E-02   -0.35803E-02  3248   0.131E-01-0.202E-04
CGA:  10    -0.569676065008E+03   -0.20359E-02   -0.20358E-02  3248   0.767E-02 0.599E-05
CGA:  11    -0.569676912641E+03   -0.84763E-03   -0.84826E-03  3248   0.439E-02 0.283E-05
CGA:  12    -0.569677626578E+03   -0.71394E-03   -0.71395E-03  3248   0.205E-02 0.941E-06
CGA:  13    -0.569677967323E+03   -0.34074E-03   -0.34052E-03  3248   0.159E-02 0.870E-05
CGA:  14    -0.569678181025E+03   -0.21370E-03   -0.21371E-03  3248   0.977E-03 0.244E-05
CGA:  15    -0.569678317113E+03   -0.13609E-03   -0.13609E-03  3248   0.647E-03-0.527E-06
CGA:  16    -0.569678418813E+03   -0.10170E-03   -0.10170E-03  3248   0.358E-03-0.683E-06
CGA:  17    -0.569678472891E+03   -0.54079E-04   -0.54091E-04  3248   0.264E-03-0.146E-05
CGA:  18    -0.569678511956E+03   -0.39065E-04   -0.39071E-04  3248   0.160E-03-0.122E-05
CGA:  19    -0.569678534025E+03   -0.22068E-04   -0.22064E-04  3248   0.123E-03-0.792E-06
CGA:  20    -0.569678553948E+03   -0.19924E-04   -0.19941E-04  3248   0.651E-04-0.901E-06
CGA:  21    -0.569678565737E+03   -0.11788E-04   -0.11792E-04  3248   0.582E-04-0.128E-06
CGA:  22    -0.569678573468E+03   -0.77311E-05   -0.77315E-05  3248   0.360E-04 0.786E-07
  14 F= -.56967857E+03 E0= -.56966977E+03  d E =-.208550E+00  mag=    70.0000
       N       E                     dE             d eps       ncg     rms          ort
SDA:   1    -0.568927266663E+03    0.75130E+00    0.00000E+00  3248   0.320E+01 0.000E+00
CGA:   2    -0.569331063846E+03   -0.40380E+00   -0.40379E+00  3248   0.139E+01-0.241E-03
CGA:   3    -0.569561137821E+03   -0.23007E+00   -0.23006E+00  3248   0.686E+00 0.432E-03
CGA:   4    -0.569636326743E+03   -0.75189E-01   -0.75536E-01  3248   0.412E+00 0.160E-02
CGA:   5    -0.569680100303E+03   -0.43774E-01   -0.43605E-01  3248   0.899E-01-0.604E-03
CGA:   6    -0.569693445042E+03   -0.13345E-01   -0.13346E-01  3248   0.424E-01-0.153E-03
CGA:   7    -0.569697832487E+03   -0.43874E-02   -0.43955E-02  3248   0.146E-01 0.318E-04
CGA:   8    -0.569699707014E+03   -0.18745E-02   -0.18754E-02  3248   0.652E-02 0.478E-04
CGA:   9    -0.569700490361E+03   -0.78335E-03   -0.78343E-03  3248   0.356E-02 0.127E-04
CGA:  10    -0.569700932219E+03   -0.44186E-03   -0.44183E-03  3248   0.130E-02 0.237E-05
CGA:  11    -0.569701152072E+03   -0.21985E-03   -0.21987E-03  3248   0.862E-03-0.135E-05
CGA:  12    -0.569701258368E+03   -0.10630E-03   -0.10624E-03  3248   0.511E-03-0.313E-05
CGA:  13    -0.569701331680E+03   -0.73312E-04   -0.73319E-04  3248   0.306E-03-0.123E-05
CGA:  14    -0.569701376623E+03   -0.44943E-04   -0.44931E-04  3248   0.178E-03 0.133E-05
CGA:  15    -0.569701406008E+03   -0.29385E-04   -0.29354E-04  3248   0.135E-03 0.129E-05
CGA:  16    -0.569701424615E+03   -0.18607E-04   -0.18611E-04  3248   0.797E-04 0.826E-06
CGA:  17    -0.569701436635E+03   -0.12020E-04   -0.12016E-04  3248   0.591E-04 0.435E-06
CGA:  18    -0.569701445082E+03   -0.84478E-05   -0.84481E-05  3248   0.319E-04-0.152E-06
  15 F= -.56970145E+03 E0= -.56969267E+03  d E =-.228716E-01  mag=    70.0000
       N       E                     dE             d eps       ncg     rms          ort
SDA:   1    -0.569638971357E+03    0.62465E-01    0.00000E+00  3248   0.248E+00 0.000E+00
CGA:   2    -0.569670960119E+03   -0.31989E-01   -0.31969E-01  3248   0.152E+00-0.508E-03
CGA:   3    -0.569690546013E+03   -0.19586E-01   -0.19606E-01  3248   0.871E-01 0.608E-03
CGA:   4    -0.569698852574E+03   -0.83066E-02   -0.82889E-02  3248   0.268E-01-0.186E-04
CGA:   5    -0.569703111042E+03   -0.42585E-02   -0.42589E-02  3248   0.777E-02-0.247E-04
CGA:   6    -0.569704064705E+03   -0.95366E-03   -0.95369E-03  3248   0.434E-02-0.594E-07
CGA:   7    -0.569704484549E+03   -0.41984E-03   -0.42032E-03  3248   0.110E-02 0.643E-05
CGA:   8    -0.569704643807E+03   -0.15926E-03   -0.15918E-03  3248   0.524E-03 0.105E-04
CGA:   9    -0.569704704688E+03   -0.60881E-04   -0.61014E-04  3248   0.267E-03 0.577E-05
CGA:  10    -0.569704743588E+03   -0.38900E-04   -0.38888E-04  3248   0.108E-03 0.182E-05
CGA:  11    -0.569704758164E+03   -0.14576E-04   -0.14571E-04  3248   0.822E-04-0.167E-05
CGA:  12    -0.569704769162E+03   -0.10999E-04   -0.10995E-04  3248   0.363E-04-0.271E-05
CGA:  13    -0.569704775615E+03   -0.64531E-05   -0.65465E-05  3248   0.293E-04-0.190E-05
  16 F= -.56970478E+03 E0= -.56969607E+03  d E =-.333053E-02  mag=    70.0000
       N       E                     dE             d eps       ncg     rms          ort
SDA:   1    -0.569296638409E+03    0.40813E+00    0.00000E+00  3248   0.135E+01 0.000E+00
CGA:   2    -0.569510591134E+03   -0.21395E+00   -0.21415E+00  3248   0.899E+00-0.627E-02
CGA:   3    -0.569641395841E+03   -0.13080E+00   -0.13080E+00  3248   0.365E+00 0.725E-04
CGA:   4    -0.569681553767E+03   -0.40158E-01   -0.40120E-01  3248   0.177E+00-0.480E-03
CGA:   5    -0.569700311714E+03   -0.18758E-01   -0.18797E-01  3248   0.479E-01 0.202E-03
CGA:   6    -0.569706187727E+03   -0.58760E-02   -0.58791E-02  3248   0.236E-01 0.894E-04
CGA:   7    -0.569708812732E+03   -0.26250E-02   -0.26231E-02  3248   0.533E-02-0.100E-04
CGA:   8    -0.569709681257E+03   -0.86853E-03   -0.86765E-03  3248   0.276E-02 0.271E-04
CGA:   9    -0.569710017223E+03   -0.33597E-03   -0.33601E-03  3248   0.153E-02 0.549E-05
CGA:  10    -0.569710199131E+03   -0.18191E-03   -0.18190E-03  3248   0.619E-03 0.594E-06
CGA:  11    -0.569710295126E+03   -0.95995E-04   -0.96071E-04  3248   0.427E-03-0.375E-05
CGA:  12    -0.569710352785E+03   -0.57659E-04   -0.57662E-04  3248   0.191E-03-0.553E-05
CGA:  13    -0.569710387899E+03   -0.35114E-04   -0.35275E-04  3248   0.139E-03-0.317E-05
CGA:  14    -0.569710404272E+03   -0.16374E-04   -0.16381E-04  3248   0.810E-04 0.429E-06
CGA:  15    -0.569710416593E+03   -0.12320E-04   -0.12282E-04  3248   0.448E-04 0.269E-05
CGA:  16    -0.569710423194E+03   -0.66016E-05   -0.65912E-05  3248   0.264E-04 0.228E-05
  17 F= -.56971042E+03 E0= -.56970190E+03  d E =-.564758E-02  mag=    70.0000
       N       E                     dE             d eps       ncg     rms          ort
SDA:   1    -0.567666494636E+03    0.20439E+01    0.00000E+00  3248   0.654E+01 0.000E+00
CGA:   2    -0.568757894092E+03   -0.10914E+01   -0.10918E+01  3248   0.433E+01-0.904E-02
CGA:   3    -0.569398331674E+03   -0.64044E+00   -0.64115E+00  3248   0.166E+01-0.514E-01
CGA:   4    -0.569600379022E+03   -0.20205E+00   -0.20291E+00  3248   0.665E+00 0.160E-01
CGA:   5    -0.569678034992E+03   -0.77656E-01   -0.77215E-01  3248   0.188E+00-0.535E-02
CGA:   6    -0.569704015654E+03   -0.25981E-01   -0.25981E-01  3248   0.922E-01-0.531E-03
CGA:   7    -0.569712122721E+03   -0.81071E-02   -0.81564E-02  3248   0.270E-01-0.551E-04
CGA:   8    -0.569716185332E+03   -0.40626E-02   -0.40594E-02  3248   0.130E-01 0.140E-03
CGA:   9    -0.569717917035E+03   -0.17317E-02   -0.17309E-02  3248   0.610E-02-0.732E-04
CGA:  10    -0.569718780511E+03   -0.86348E-03   -0.86333E-03  3248   0.290E-02 0.156E-04
CGA:  11    -0.569719291422E+03   -0.51091E-03   -0.51095E-03  3248   0.203E-02-0.167E-05
CGA:  12    -0.569719543115E+03   -0.25169E-03   -0.25167E-03  3248   0.121E-02-0.232E-05
CGA:  13    -0.569719737974E+03   -0.19486E-03   -0.19487E-03  3248   0.806E-03-0.121E-05
CGA:  14    -0.569719854527E+03   -0.11655E-03   -0.11654E-03  3248   0.477E-03 0.225E-05
CGA:  15    -0.569719935479E+03   -0.80952E-04   -0.80799E-04  3248   0.267E-03 0.532E-05
CGA:  16    -0.569719980064E+03   -0.44585E-04   -0.44519E-04  3248   0.184E-03 0.279E-05
CGA:  17    -0.569720009677E+03   -0.29612E-04   -0.29598E-04  3248   0.120E-03 0.835E-06
CGA:  18    -0.569720027252E+03   -0.17575E-04   -0.17578E-04  3248   0.853E-04-0.102E-05
CGA:  19    -0.569720040036E+03   -0.12784E-04   -0.12797E-04  3248   0.542E-04-0.151E-05
CGA:  20    -0.569720048762E+03   -0.87263E-05   -0.87361E-05  3248   0.320E-04-0.505E-06
  18 F= -.56972005E+03 E0= -.56971180E+03  d E =-.962557E-02  mag=    70.0000
       N       E                     dE             d eps       ncg     rms          ort
SDA:   1    -0.552535417541E+03    0.17185E+02    0.00000E+00  3248   0.669E+02 0.000E+00
CGA:   2    -0.561462391790E+03   -0.89270E+01   -0.89265E+01  3248   0.337E+02 0.960E-02
CGA:   3    -0.566543938618E+03   -0.50815E+01   -0.50736E+01  3248   0.153E+02 0.760E+00
CGA:   4    -0.568136228381E+03   -0.15923E+01   -0.15341E+01  3248   0.775E+01-0.308E+00
CGA:   5    -0.569141780094E+03   -0.10056E+01   -0.10029E+01  3248   0.194E+01-0.962E-01
CGA:   6    -0.569424235164E+03   -0.28246E+00   -0.28255E+00  3248   0.847E+00-0.102E-01
CGA:   7    -0.569497694991E+03   -0.73460E-01   -0.74781E-01  3248   0.379E+00-0.355E-02
CGA:   8    -0.569544755812E+03   -0.47061E-01   -0.47085E-01  3248   0.124E+00 0.559E-03
CGA:   9    -0.569564011909E+03   -0.19256E-01   -0.19238E-01  3248   0.865E-01 0.652E-03
CGA:  10    -0.569572890882E+03   -0.88790E-02   -0.89081E-02  3248   0.350E-01 0.103E-03
CGA:  11    -0.569578734605E+03   -0.58437E-02   -0.58296E-02  3248   0.241E-01 0.348E-03
CGA:  12    -0.569581821419E+03   -0.30868E-02   -0.30892E-02  3248   0.145E-01 0.104E-03
CGA:  13    -0.569584301304E+03   -0.24799E-02   -0.24769E-02  3248   0.954E-02 0.802E-04
CGA:  14    -0.569585577725E+03   -0.12764E-02   -0.12769E-02  3248   0.641E-02 0.359E-04
CGA:  15    -0.569586647147E+03   -0.10694E-02   -0.10688E-02  3248   0.427E-02 0.151E-04
CGA:  16    -0.569587230188E+03   -0.58304E-03   -0.58297E-03  3248   0.258E-02-0.118E-04
CGA:  17    -0.569587689324E+03   -0.45914E-03   -0.45922E-03  3248   0.174E-02-0.403E-05
CGA:  18    -0.569587912778E+03   -0.22345E-03   -0.22339E-03  3248   0.118E-02-0.359E-05
CGA:  19    -0.569588111027E+03   -0.19825E-03   -0.19827E-03  3248   0.653E-03-0.458E-06
CGA:  20    -0.569588216371E+03   -0.10534E-03   -0.10528E-03  3248   0.508E-03 0.363E-05
CGA:  21    -0.569588286816E+03   -0.70445E-04   -0.70471E-04  3248   0.291E-03 0.378E-05
CGA:  22    -0.569588332961E+03   -0.46145E-04   -0.46122E-04  3248   0.175E-03 0.184E-05
CGA:  23    -0.569588358525E+03   -0.25565E-04   -0.25565E-04  3248   0.120E-03-0.296E-06
CGA:  24    -0.569588377694E+03   -0.19168E-04   -0.19207E-04  3248   0.748E-04-0.238E-05
CGA:  25    -0.569588389002E+03   -0.11309E-04   -0.11332E-04  3248   0.599E-04-0.262E-05
CGA:  26    -0.569588398103E+03   -0.91001E-05   -0.91253E-05  3248   0.402E-04-0.219E-05
  19 F= -.56958840E+03 E0= -.56957948E+03  d E =0.131651E+00  mag=    70.0000
       N       E                     dE             d eps       ncg     rms          ort
SDA:   1    -0.565765862766E+03    0.38225E+01    0.00000E+00  3248   0.181E+02 0.000E+00
CGA:   2    -0.567871256452E+03   -0.21054E+01   -0.21057E+01  3248   0.689E+01 0.282E-02
CGA:   3    -0.569118112843E+03   -0.12469E+01   -0.12466E+01  3248   0.241E+01 0.573E-02
CGA:   4    -0.569493135284E+03   -0.37502E+00   -0.37490E+00  3248   0.153E+01 0.889E-02
CGA:   5    -0.569630549831E+03   -0.13741E+00   -0.13475E+00  3248   0.457E+00 0.357E-02
CGA:   6    -0.569694469935E+03   -0.63920E-01   -0.63932E-01  3248   0.126E+00 0.103E-02
CGA:   7    -0.569713344754E+03   -0.18875E-01   -0.18876E-01  3248   0.586E-01-0.796E-04
CGA:   8    -0.569719513540E+03   -0.61688E-02   -0.61858E-02  3248   0.283E-01 0.116E-03
CGA:   9    -0.569723340575E+03   -0.38270E-02   -0.38278E-02  3248   0.111E-01 0.735E-04
CGA:  10    -0.569724951361E+03   -0.16108E-02   -0.16108E-02  3248   0.616E-02-0.118E-04
CGA:  11    -0.569725781520E+03   -0.83016E-03   -0.83000E-03  3248   0.359E-02-0.151E-04
CGA:  12    -0.569726293148E+03   -0.51163E-03   -0.51163E-03  3248   0.225E-02-0.515E-05
CGA:  13    -0.569726638824E+03   -0.34568E-03   -0.34576E-03  3248   0.118E-02-0.608E-05
CGA:  14    -0.569726819264E+03   -0.18044E-03   -0.18041E-03  3248   0.102E-02 0.294E-05
CGA:  15    -0.569726957517E+03   -0.13825E-03   -0.13833E-03  3248   0.444E-03 0.779E-05
CGA:  16    -0.569727047644E+03   -0.90127E-04   -0.89843E-04  3248   0.361E-03 0.502E-05
CGA:  17    -0.569727092417E+03   -0.44772E-04   -0.44827E-04  3248   0.213E-03 0.244E-05
CGA:  18    -0.569727127644E+03   -0.35227E-04   -0.35221E-04  3248   0.139E-03 0.225E-06
CGA:  19    -0.569727150577E+03   -0.22933E-04   -0.22976E-04  3248   0.944E-04-0.215E-05
CGA:  20    -0.569727165726E+03   -0.15150E-04   -0.15194E-04  3248   0.783E-04-0.266E-05
CGA:  21    -0.569727176113E+03   -0.10387E-04   -0.10365E-04  3248   0.389E-04-0.193E-05
CGA:  22    -0.569727183399E+03   -0.72858E-05   -0.73181E-05  3248   0.325E-04-0.697E-06
  20 F= -.56972718E+03 E0= -.56971857E+03  d E =-.138785E+00  mag=    70.0000
       N       E                     dE             d eps       ncg     rms          ort
SDA:   1    -0.569084512620E+03    0.64266E+00    0.00000E+00  3248   0.276E+01 0.000E+00
CGA:   2    -0.569431311401E+03   -0.34680E+00   -0.34682E+00  3248   0.121E+01 0.227E-03
CGA:   3    -0.569641492472E+03   -0.21018E+00   -0.21021E+00  3248   0.402E+00-0.748E-03
CGA:   4    -0.569701319719E+03   -0.59827E-01   -0.59823E-01  3248   0.255E+00 0.410E-02
CGA:   5    -0.569725189515E+03   -0.23870E-01   -0.23402E-01  3248   0.748E-01 0.116E-02
CGA:   6    -0.569735407158E+03   -0.10218E-01   -0.10216E-01  3248   0.239E-01-0.860E-04
CGA:   7    -0.569738131715E+03   -0.27246E-02   -0.27271E-02  3248   0.118E-01 0.435E-04
CGA:   8    -0.569739536812E+03   -0.14051E-02   -0.14056E-02  3248   0.368E-02 0.314E-04
CGA:   9    -0.569740188904E+03   -0.65209E-03   -0.65114E-03  3248   0.191E-02 0.267E-04
CGA:  10    -0.569740407346E+03   -0.21844E-03   -0.21828E-03  3248   0.109E-02-0.358E-06
CGA:  11    -0.569740564977E+03   -0.15763E-03   -0.15764E-03  3248   0.530E-03-0.713E-05
CGA:  12    -0.569740644279E+03   -0.79302E-04   -0.79335E-04  3248   0.414E-03-0.500E-05
CGA:  13    -0.569740700070E+03   -0.55791E-04   -0.55752E-04  3248   0.181E-03-0.474E-05
CGA:  14    -0.569740732100E+03   -0.32030E-04   -0.31965E-04  3248   0.143E-03 0.178E-05
CGA:  15    -0.569740752036E+03   -0.19936E-04   -0.19951E-04  3248   0.767E-04 0.269E-05
CGA:  16    -0.569740764255E+03   -0.12219E-04   -0.12186E-04  3248   0.618E-04 0.274E-05
CGA:  17    -0.569740773165E+03   -0.89101E-05   -0.89186E-05  3248   0.331E-04 0.160E-05
  21 F= -.56974077E+03 E0= -.56973220E+03  d E =-.135898E-01  mag=    70.0000
       N       E                     dE             d eps       ncg     rms          ort
SDA:   1    -0.569679684450E+03    0.61080E-01    0.00000E+00  3248   0.254E+00 0.000E+00
CGA:   2    -0.569711187386E+03   -0.31503E-01   -0.31483E-01  3248   0.149E+00-0.300E-03
CGA:   3    -0.569729497524E+03   -0.18310E-01   -0.18343E-01  3248   0.786E-01 0.498E-03
CGA:   4    -0.569737549742E+03   -0.80522E-02   -0.80313E-02  3248   0.249E-01-0.564E-04
CGA:   5    -0.569741616114E+03   -0.40664E-02   -0.40681E-02  3248   0.886E-02-0.589E-04
CGA:   6    -0.569742522002E+03   -0.90589E-03   -0.90903E-03  3248   0.405E-02 0.719E-05
CGA:   7    -0.569742991212E+03   -0.46921E-03   -0.46886E-03  3248   0.996E-03-0.152E-05
CGA:   8    -0.569743138822E+03   -0.14761E-03   -0.14752E-03  3248   0.576E-03 0.986E-05
CGA:   9    -0.569743200374E+03   -0.61552E-04   -0.61745E-04  3248   0.261E-03 0.550E-05
CGA:  10    -0.569743241217E+03   -0.40843E-04   -0.40802E-04  3248   0.109E-03 0.249E-05
CGA:  11    -0.569743257743E+03   -0.16526E-04   -0.16541E-04  3248   0.942E-04-0.139E-05
CGA:  12    -0.569743270676E+03   -0.12933E-04   -0.12931E-04  3248   0.447E-04-0.272E-05
CGA:  13    -0.569743278311E+03   -0.76354E-05   -0.76999E-05  3248   0.394E-04-0.172E-05
  22 F= -.56974328E+03 E0= -.56973469E+03  d E =-.250515E-02  mag=    70.0000
       N       E                     dE             d eps       ncg     rms          ort
SDA:   1    -0.569622651298E+03    0.12062E+00    0.00000E+00  3248   0.422E+00 0.000E+00
CGA:   2    -0.569683710311E+03   -0.61059E-01   -0.61042E-01  3248   0.297E+00 0.218E-02
CGA:   3    -0.569719384255E+03   -0.35674E-01   -0.35595E-01  3248   0.156E+00-0.116E-02
CGA:   4    -0.569735483622E+03   -0.16099E-01   -0.16075E-01  3248   0.485E-01-0.126E-03
CGA:   5    -0.569742747890E+03   -0.72643E-02   -0.72640E-02  3248   0.134E-01 0.619E-05
CGA:   6    -0.569744423587E+03   -0.16757E-02   -0.16748E-02  3248   0.780E-02-0.263E-04
CGA:   7    -0.569745170555E+03   -0.74697E-03   -0.74756E-03  3248   0.190E-02 0.389E-05
CGA:   8    -0.569745451693E+03   -0.28114E-03   -0.28101E-03  3248   0.920E-03 0.934E-05
CGA:   9    -0.569745573068E+03   -0.12138E-03   -0.12138E-03  3248   0.496E-03 0.211E-05
CGA:  10    -0.569745630944E+03   -0.57876E-04   -0.57907E-04  3248   0.235E-03 0.135E-05
CGA:  11    -0.569745666378E+03   -0.35434E-04   -0.35455E-04  3248   0.139E-03-0.137E-05
CGA:  12    -0.569745689787E+03   -0.23409E-04   -0.23499E-04  3248   0.934E-04-0.260E-05
CGA:  13    -0.569745700798E+03   -0.11012E-04   -0.10988E-04  3248   0.613E-04-0.131E-05
CGA:  14    -0.569745711441E+03   -0.10642E-04   -0.10650E-04  3248   0.320E-04-0.178E-06
CGA:  15    -0.569745716744E+03   -0.53032E-05   -0.52794E-05  3248   0.259E-04 0.902E-06
  23 F= -.56974572E+03 E0= -.56973706E+03  d E =-.243843E-02  mag=    70.0000
       N       E                     dE             d eps       ncg     rms          ort
SDA:   1    -0.569349385752E+03    0.39633E+00    0.00000E+00  3248   0.133E+01 0.000E+00
CGA:   2    -0.569540286353E+03   -0.19090E+00   -0.19088E+00  3248   0.105E+01 0.215E-02
CGA:   3    -0.569662712080E+03   -0.12243E+00   -0.12288E+00  3248   0.521E+00 0.589E-02
CGA:   4    -0.569717551368E+03   -0.54839E-01   -0.54592E-01  3248   0.151E+00-0.131E-02
CGA:   5    -0.569739207540E+03   -0.21656E-01   -0.21667E-01  3248   0.570E-01-0.824E-03
CGA:   6    -0.569744522908E+03   -0.53154E-02   -0.53856E-02  3248   0.236E-01 0.103E-03
CGA:   7    -0.569747546217E+03   -0.30233E-02   -0.30206E-02  3248   0.673E-02-0.170E-03
CGA:   8    -0.569748393765E+03   -0.84755E-03   -0.84803E-03  3248   0.351E-02 0.288E-04
CGA:   9    -0.569748800549E+03   -0.40678E-03   -0.40646E-03  3248   0.175E-02-0.665E-05
CGA:  10    -0.569749022300E+03   -0.22175E-03   -0.22173E-03  3248   0.748E-03-0.176E-05
CGA:  11    -0.569749133516E+03   -0.11122E-03   -0.11119E-03  3248   0.472E-03 0.813E-06
CGA:  12    -0.569749199877E+03   -0.66361E-04   -0.66366E-04  3248   0.331E-03-0.636E-06
CGA:  13    -0.569749244396E+03   -0.44520E-04   -0.44520E-04  3248   0.163E-03-0.108E-05
CGA:  14    -0.569749272562E+03   -0.28166E-04   -0.28159E-04  3248   0.147E-03 0.868E-07
CGA:  15    -0.569749290120E+03   -0.17558E-04   -0.17558E-04  3248   0.738E-04 0.112E-06
CGA:  16    -0.569749303137E+03   -0.13016E-04   -0.12963E-04  3248   0.465E-04 0.130E-05
CGA:  17    -0.569749309911E+03   -0.67742E-05   -0.67719E-05  3248   0.347E-04 0.345E-06
  24 F= -.56974931E+03 E0= -.56974052E+03  d E =-.359317E-02  mag=    70.0000
       N       E                     dE             d eps       ncg     rms          ort
SDA:   1    -0.545891163597E+03    0.23858E+02    0.00000E+00  3248   0.950E+02 0.000E+00
CGA:   2    -0.557569298837E+03   -0.11678E+02   -0.11784E+02  3248   0.503E+02 0.326E+01
CGA:   3    -0.564109968822E+03   -0.65407E+01   -0.64974E+01  3248   0.308E+02-0.284E+01
CGA:   4    -0.567360713382E+03   -0.32507E+01   -0.28893E+01  3248   0.110E+02-0.131E+01
CGA:   5    -0.568861506689E+03   -0.15008E+01   -0.15011E+01  3248   0.413E+01-0.177E-01
CGA:   6    -0.569258459476E+03   -0.39695E+00   -0.40541E+00  3248   0.163E+01 0.172E-01
CGA:   7    -0.569469710766E+03   -0.21125E+00   -0.21132E+00  3248   0.568E+00 0.680E-02
CGA:   8    -0.569525434000E+03   -0.55723E-01   -0.56178E-01  3248   0.419E+00 0.186E-02
CGA:   9    -0.569558476713E+03   -0.33043E-01   -0.33907E-01  3248   0.197E+00-0.194E-02
CGA:  10    -0.569581045853E+03   -0.22569E-01   -0.22597E-01  3248   0.938E-01 0.602E-03
CGA:  11    -0.569592787808E+03   -0.11742E-01   -0.11746E-01  3248   0.492E-01 0.558E-03
CGA:  12    -0.569600280853E+03   -0.74930E-02   -0.74469E-02  3248   0.344E-01 0.132E-02
CGA:  13    -0.569604100104E+03   -0.38193E-02   -0.38358E-02  3248   0.273E-01 0.277E-03
CGA:  14    -0.569607256024E+03   -0.31559E-02   -0.31544E-02  3248   0.130E-01-0.204E-04
CGA:  15    -0.569609356978E+03   -0.21010E-02   -0.20926E-02  3248   0.933E-02 0.181E-03
CGA:  16    -0.569610738377E+03   -0.13814E-02   -0.13825E-02  3248   0.589E-02-0.374E-04
CGA:  17    -0.569611620652E+03   -0.88228E-03   -0.88150E-03  3248   0.438E-02 0.231E-04
CGA:  18    -0.569612096928E+03   -0.47628E-03   -0.47736E-03  3248   0.308E-02 0.120E-04
CGA:  19    -0.569612545984E+03   -0.44906E-03   -0.44938E-03  3248   0.176E-02-0.156E-04
CGA:  20    -0.569612831014E+03   -0.28503E-03   -0.28479E-03  3248   0.112E-02 0.479E-05
CGA:  21    -0.569613012534E+03   -0.18152E-03   -0.18163E-03  3248   0.807E-03-0.250E-05
CGA:  22    -0.569613128993E+03   -0.11646E-03   -0.11641E-03  3248   0.489E-03 0.351E-05
CGA:  23    -0.569613186512E+03   -0.57518E-04   -0.57555E-04  3248   0.396E-03 0.217E-05
CGA:  24    -0.569613237282E+03   -0.50770E-04   -0.50762E-04  3248   0.164E-03-0.411E-06
CGA:  25    -0.569613264953E+03   -0.27672E-04   -0.27713E-04  3248   0.130E-03-0.121E-05
CGA:  26    -0.569613285245E+03   -0.20292E-04   -0.20368E-04  3248   0.777E-04-0.324E-05
CGA:  27    -0.569613298624E+03   -0.13379E-04   -0.13475E-04  3248   0.599E-04-0.230E-05
CGA:  28    -0.569613307201E+03   -0.85771E-05   -0.85898E-05  3248   0.575E-04-0.124E-05
  25 F= -.56961331E+03 E0= -.56960397E+03  d E =0.136003E+00  mag=    70.0000
       N       E                     dE             d eps       ncg     rms          ort
SDA:   1    -0.559859643526E+03    0.97537E+01    0.00000E+00  3248   0.463E+02 0.000E+00
CGA:   2    -0.565136286186E+03   -0.52766E+01   -0.52841E+01  3248   0.172E+02 0.954E-01
CGA:   3    -0.568022033202E+03   -0.28857E+01   -0.28930E+01  3248   0.855E+01-0.111E+00
CGA:   4    -0.568881982192E+03   -0.85995E+00   -0.91982E+00  3248   0.464E+01 0.391E+00
CGA:   5    -0.569465200907E+03   -0.58322E+00   -0.56151E+00  3248   0.158E+01-0.379E+00
CGA:   6    -0.569625329725E+03   -0.16013E+00   -0.15769E+00  3248   0.669E+00-0.260E-01
CGA:   7    -0.569700141880E+03   -0.74812E-01   -0.75181E-01  3248   0.213E+00 0.611E-02
CGA:   8    -0.569723245383E+03   -0.23104E-01   -0.23164E-01  3248   0.128E+00 0.624E-03
CGA:   9    -0.569737064889E+03   -0.13820E-01   -0.13757E-01  3248   0.518E-01-0.710E-03
CGA:  10    -0.569743838032E+03   -0.67731E-02   -0.67720E-02  3248   0.266E-01 0.567E-03
CGA:  11    -0.569747019765E+03   -0.31817E-02   -0.31776E-02  3248   0.167E-01-0.131E-03
CGA:  12    -0.569749161413E+03   -0.21416E-02   -0.21418E-02  3248   0.108E-01 0.555E-04
CGA:  13    -0.569750479797E+03   -0.13184E-02   -0.13189E-02  3248   0.596E-02 0.251E-04
CGA:  14    -0.569751464719E+03   -0.98492E-03   -0.98520E-03  3248   0.469E-02-0.538E-05
CGA:  15    -0.569752012268E+03   -0.54755E-03   -0.54754E-03  3248   0.314E-02 0.101E-05
CGA:  16    -0.569752460035E+03   -0.44777E-03   -0.44747E-03  3248   0.198E-02 0.170E-04
CGA:  17    -0.569752732318E+03   -0.27228E-03   -0.27230E-03  3248   0.132E-02-0.210E-07
CGA:  18    -0.569752923726E+03   -0.19141E-03   -0.19129E-03  3248   0.945E-03 0.728E-05
CGA:  19    -0.569753030699E+03   -0.10697E-03   -0.10700E-03  3248   0.541E-03 0.992E-06
CGA:  20    -0.569753117821E+03   -0.87122E-04   -0.87208E-04  3248   0.382E-03-0.262E-05
CGA:  21    -0.569753169616E+03   -0.51795E-04   -0.51808E-04  3248   0.274E-03-0.342E-05
CGA:  22    -0.569753207211E+03   -0.37595E-04   -0.37614E-04  3248   0.203E-03-0.343E-05
CGA:  23    -0.569753232739E+03   -0.25527E-04   -0.25511E-04  3248   0.113E-03-0.281E-05
CGA:  24    -0.569753250697E+03   -0.17958E-04   -0.17958E-04  3248   0.889E-04-0.675E-07
CGA:  25    -0.569753261806E+03   -0.11110E-04   -0.11113E-04  3248   0.597E-04 0.395E-06
CGA:  26    -0.569753269994E+03   -0.81879E-05   -0.81854E-05  3248   0.410E-04 0.924E-06
  26 F= -.56975327E+03 E0= -.56974482E+03  d E =-.139963E+00  mag=    70.0000
       N       E                     dE             d eps       ncg     rms          ort
SDA:   1    -0.569534775761E+03    0.21849E+00    0.00000E+00  3248   0.100E+01 0.000E+00
CGA:   2    -0.569656888966E+03   -0.12211E+00   -0.12215E+00  3248   0.441E+00 0.115E-02
CGA:   3    -0.569716635748E+03   -0.59747E-01   -0.59753E-01  3248   0.293E+00-0.235E-02
CGA:   4    -0.569741420231E+03   -0.24784E-01   -0.24712E-01  3248   0.120E+00-0.401E-03
CGA:   5    -0.569758371546E+03   -0.16951E-01   -0.16945E-01  3248   0.390E-01 0.363E-03
CGA:   6    -0.569762527892E+03   -0.41563E-02   -0.41402E-02  3248   0.182E-01-0.169E-03
CGA:   7    -0.569764681389E+03   -0.21535E-02   -0.21548E-02  3248   0.601E-02 0.440E-04
CGA:   8    -0.569765244613E+03   -0.56322E-03   -0.56355E-03  3248   0.325E-02 0.653E-05
CGA:   9    -0.569765641184E+03   -0.39657E-03   -0.39660E-03  3248   0.109E-02 0.762E-05
CGA:  10    -0.569765820330E+03   -0.17915E-03   -0.17890E-03  3248   0.684E-03 0.650E-05
CGA:  11    -0.569765885064E+03   -0.64735E-04   -0.64742E-04  3248   0.353E-03 0.657E-06
CGA:  12    -0.569765940696E+03   -0.55632E-04   -0.55708E-04  3248   0.247E-03-0.245E-05
CGA:  13    -0.569765968320E+03   -0.27624E-04   -0.27613E-04  3248   0.122E-03-0.904E-06
CGA:  14    -0.569765991427E+03   -0.23106E-04   -0.23186E-04  3248   0.104E-03-0.127E-05
CGA:  15    -0.569766001588E+03   -0.10162E-04   -0.10165E-04  3248   0.624E-04 0.948E-07
CGA:  16    -0.569766013044E+03   -0.11456E-04   -0.11415E-04  3248   0.395E-04 0.760E-06
CGA:  17    -0.569766018246E+03   -0.52023E-05   -0.52044E-05  3248   0.295E-04 0.570E-06
  27 F= -.56976602E+03 E0= -.56975752E+03  d E =-.127483E-01  mag=    70.0000
       N       E                     dE             d eps       ncg     rms          ort
SDA:   1    -0.569371694752E+03    0.39432E+00    0.00000E+00  3248   0.157E+01 0.000E+00
CGA:   2    -0.569593080436E+03   -0.22139E+00   -0.22136E+00  3248   0.725E+00 0.162E-02
CGA:   3    -0.569698058699E+03   -0.10498E+00   -0.10512E+00  3248   0.374E+00-0.742E-02
CGA:   4    -0.569733816051E+03   -0.35757E-01   -0.36051E-01  3248   0.219E+00 0.647E-03
CGA:   5    -0.569757390542E+03   -0.23574E-01   -0.23606E-01  3248   0.679E-01 0.256E-03
CGA:   6    -0.569764666850E+03   -0.72763E-02   -0.72449E-02  3248   0.288E-01-0.364E-03
CGA:   7    -0.569768146564E+03   -0.34797E-02   -0.34816E-02  3248   0.755E-02 0.966E-04
CGA:   8    -0.569769066645E+03   -0.92008E-03   -0.91999E-03  3248   0.570E-02 0.201E-05
CGA:   9    -0.569769607570E+03   -0.54092E-03   -0.54118E-03  3248   0.191E-02 0.129E-04
CGA:  10    -0.569769917379E+03   -0.30981E-03   -0.30940E-03  3248   0.102E-02 0.111E-04
CGA:  11    -0.569770039084E+03   -0.12171E-03   -0.12167E-03  3248   0.670E-03-0.172E-05
CGA:  12    -0.569770136022E+03   -0.96937E-04   -0.96997E-04  3248   0.501E-03-0.356E-05
CGA:  13    -0.569770187354E+03   -0.51332E-04   -0.51304E-04  3248   0.253E-03-0.168E-05
CGA:  14    -0.569770238802E+03   -0.51448E-04   -0.51625E-04  3248   0.174E-03-0.229E-05
CGA:  15    -0.569770261020E+03   -0.22218E-04   -0.22220E-04  3248   0.151E-03 0.798E-06
CGA:  16    -0.569770281595E+03   -0.20575E-04   -0.20571E-04  3248   0.961E-04 0.127E-05
CGA:  17    -0.569770293696E+03   -0.12101E-04   -0.12108E-04  3248   0.572E-04 0.105E-05
CGA:  18    -0.569770303955E+03   -0.10258E-04   -0.10209E-04  3248   0.406E-04 0.109E-05
CGA:  19    -0.569770309036E+03   -0.50812E-05   -0.50841E-05  3248   0.317E-04 0.279E-06
  28 F= -.56977031E+03 E0= -.56976179E+03  d E =-.429079E-02  mag=    70.0000
       N       E                     dE             d eps       ncg     rms          ort
SDA:   1    -0.569721249942E+03    0.49054E-01    0.00000E+00  3248   0.170E+00 0.000E+00
CGA:   2    -0.569749627768E+03   -0.28378E-01   -0.28380E-01  3248   0.896E-01-0.522E-04
CGA:   3    -0.569763464546E+03   -0.13837E-01   -0.13838E-01  3248   0.347E-01-0.426E-04
CGA:   4    -0.569768703792E+03   -0.52392E-02   -0.52371E-02  3248   0.155E-01 0.861E-04
CGA:   5    -0.569770112922E+03   -0.14091E-02   -0.14013E-02  3248   0.667E-02-0.162E-05
CGA:   6    -0.569770808206E+03   -0.69528E-03   -0.69485E-03  3248   0.269E-02-0.727E-05
CGA:   7    -0.569771048560E+03   -0.24035E-03   -0.24084E-03  3248   0.803E-03 0.476E-06
CGA:   8    -0.569771178953E+03   -0.13039E-03   -0.13040E-03  3248   0.324E-03-0.775E-07
CGA:   9    -0.569771226035E+03   -0.47083E-04   -0.47061E-04  3248   0.224E-03 0.154E-05
CGA:  10    -0.569771246067E+03   -0.20031E-04   -0.20029E-04  3248   0.102E-03 0.427E-07
CGA:  11    -0.569771261817E+03   -0.15750E-04   -0.15756E-04  3248   0.743E-04-0.213E-06
CGA:  12    -0.569771271068E+03   -0.92510E-05   -0.92513E-05  3248   0.343E-04-0.321E-07
  29 F= -.56977127E+03 E0= -.56976275E+03  d E =-.962032E-03  mag=    70.0000
       N       E                     dE             d eps       ncg     rms          ort
SDA:   1    -0.569415215299E+03    0.35605E+00    0.00000E+00  3248   0.134E+01 0.000E+00
CGA:   2    -0.569557217285E+03   -0.14200E+00   -0.14391E+00  3248   0.115E+01 0.907E-02
CGA:   3    -0.569681445224E+03   -0.12423E+00   -0.12364E+00  3248   0.442E+00-0.801E-02
CGA:   4    -0.569743805384E+03   -0.62360E-01   -0.62435E-01  3248   0.168E+00-0.425E-02
CGA:   5    -0.569762296658E+03   -0.18491E-01   -0.18600E-01  3248   0.655E-01 0.161E-02
CGA:   6    -0.569768808047E+03   -0.65114E-02   -0.64827E-02  3248   0.272E-01-0.138E-03
CGA:   7    -0.569771558113E+03   -0.27501E-02   -0.27480E-02  3248   0.125E-01-0.279E-04
CGA:   8    -0.569772843042E+03   -0.12849E-02   -0.12871E-02  3248   0.318E-02 0.185E-04
CGA:   9    -0.569773367278E+03   -0.52424E-03   -0.52475E-03  3248   0.213E-02-0.115E-04
CGA:  10    -0.569773562981E+03   -0.19570E-03   -0.19580E-03  3248   0.102E-02 0.370E-06
CGA:  11    -0.569773687254E+03   -0.12427E-03   -0.12428E-03  3248   0.511E-03 0.106E-05
CGA:  12    -0.569773763410E+03   -0.76156E-04   -0.76167E-04  3248   0.329E-03-0.128E-06
CGA:  13    -0.569773807484E+03   -0.44074E-04   -0.44066E-04  3248   0.204E-03 0.101E-05
CGA:  14    -0.569773831057E+03   -0.23572E-04   -0.23579E-04  3248   0.144E-03 0.494E-06
CGA:  15    -0.569773850479E+03   -0.19423E-04   -0.19425E-04  3248   0.800E-04-0.315E-06
CGA:  16    -0.569773864229E+03   -0.13749E-04   -0.13745E-04  3248   0.536E-04 0.844E-07
CGA:  17    -0.569773870475E+03   -0.62459E-05   -0.62415E-05  3248   0.409E-04-0.309E-06
  30 F= -.56977387E+03 E0= -.56976535E+03  d E =-.259941E-02  mag=    70.0000
       N       E                     dE             d eps       ncg     rms          ort
SDA:   1    -0.568547839937E+03    0.12260E+01    0.00000E+00  3248   0.447E+01 0.000E+00
CGA:   2    -0.569017663099E+03   -0.46982E+00   -0.47243E+00  3248   0.393E+01-0.848E-01
CGA:   3    -0.569483097382E+03   -0.46543E+00   -0.46520E+00  3248   0.161E+01-0.173E-01
CGA:   4    -0.569683390656E+03   -0.20029E+00   -0.20015E+00  3248   0.462E+00-0.205E-01
CGA:   5    -0.569747354066E+03   -0.63963E-01   -0.63843E-01  3248   0.160E+00 0.580E-02
CGA:   6    -0.569766291188E+03   -0.18937E-01   -0.18879E-01  3248   0.596E-01-0.190E-02
CGA:   7    -0.569774066882E+03   -0.77757E-02   -0.77738E-02  3248   0.283E-01 0.249E-03
CGA:   8    -0.569776190677E+03   -0.21238E-02   -0.21460E-02  3248   0.104E-01-0.936E-04
CGA:   9    -0.569777784946E+03   -0.15943E-02   -0.15958E-02  3248   0.417E-02-0.418E-04
CGA:  10    -0.569778419406E+03   -0.63446E-03   -0.63366E-03  3248   0.219E-02 0.208E-04
CGA:  11    -0.569778707822E+03   -0.28842E-03   -0.28845E-03  3248   0.137E-02-0.529E-05
CGA:  12    -0.569778873749E+03   -0.16593E-03   -0.16596E-03  3248   0.104E-02 0.210E-05
CGA:  13    -0.569778996469E+03   -0.12272E-03   -0.12275E-03  3248   0.404E-03 0.176E-05
CGA:  14    -0.569779077372E+03   -0.80902E-04   -0.80937E-04  3248   0.284E-03-0.520E-06
CGA:  15    -0.569779118718E+03   -0.41347E-04   -0.41332E-04  3248   0.213E-03 0.910E-06
CGA:  16    -0.569779143187E+03   -0.24468E-04   -0.24479E-04  3248   0.139E-03 0.414E-06
CGA:  17    -0.569779161600E+03   -0.18413E-04   -0.18414E-04  3248   0.739E-04-0.215E-07
CGA:  18    -0.569779174723E+03   -0.13123E-04   -0.13121E-04  3248   0.498E-04 0.838E-08
CGA:  19    -0.569779183267E+03   -0.85439E-05   -0.85599E-05  3248   0.437E-04-0.422E-06
  31 F= -.56977918E+03 E0= -.56977092E+03  d E =-.531279E-02  mag=    70.0000
       N       E                     dE             d eps       ncg     rms          ort
SDA:   1    -0.542600594444E+03    0.27179E+02    0.00000E+00  3248   0.930E+02 0.000E+00
CGA:   2    -0.557525221917E+03   -0.14925E+02   -0.15118E+02  3248   0.608E+02-0.411E+01
CGA:   3    -0.564388530857E+03   -0.68633E+01   -0.69244E+01  3248   0.260E+02 0.771E+00
CGA:   4    -0.567477728138E+03   -0.30892E+01   -0.28997E+01  3248   0.128E+02-0.197E+01
CGA:   5    -0.568974196721E+03   -0.14965E+01   -0.14992E+01  3248   0.304E+01 0.203E+00
CGA:   6    -0.569413846279E+03   -0.43965E+00   -0.44016E+00  3248   0.161E+01-0.307E-01
CGA:   7    -0.569539613673E+03   -0.12577E+00   -0.13537E+00  3248   0.565E+00-0.639E-02
CGA:   8    -0.569618294330E+03   -0.78681E-01   -0.78578E-01  3248   0.206E+00 0.649E-02
CGA:   9    -0.569653213427E+03   -0.34919E-01   -0.34600E-01  3248   0.115E+00 0.639E-02
CGA:  10    -0.569667260154E+03   -0.14047E-01   -0.14037E-01  3248   0.564E-01-0.188E-03
CGA:  11    -0.569677125560E+03   -0.98654E-02   -0.97862E-02  3248   0.324E-01 0.140E-02
CGA:  12    -0.569682776860E+03   -0.56513E-02   -0.56722E-02  3248   0.197E-01-0.413E-03
CGA:  13    -0.569686172899E+03   -0.33960E-02   -0.33804E-02  3248   0.119E-01 0.300E-03
CGA:  14    -0.569688237021E+03   -0.20641E-02   -0.20693E-02  3248   0.924E-02-0.107E-03
CGA:  15    -0.569689717410E+03   -0.14804E-02   -0.14770E-02  3248   0.470E-02 0.103E-03
CGA:  16    -0.569690770961E+03   -0.10536E-02   -0.10553E-02  3248   0.372E-02-0.176E-04
CGA:  17    -0.569691434510E+03   -0.66355E-03   -0.66211E-03  3248   0.253E-02 0.322E-04
CGA:  18    -0.569691878038E+03   -0.44353E-03   -0.44412E-03  3248   0.194E-02-0.140E-04
CGA:  19    -0.569692217623E+03   -0.33959E-03   -0.33932E-03  3248   0.966E-03 0.542E-05
CGA:  20    -0.569692433701E+03   -0.21608E-03   -0.21669E-03  3248   0.672E-03-0.767E-05
CGA:  21    -0.569692524873E+03   -0.91171E-04   -0.91195E-04  3248   0.333E-03-0.475E-06
CGA:  22    -0.569692584894E+03   -0.60021E-04   -0.60089E-04  3248   0.184E-03-0.209E-05
CGA:  23    -0.569692614943E+03   -0.30049E-04   -0.30052E-04  3248   0.994E-04-0.442E-06
CGA:  24    -0.569692633223E+03   -0.18280E-04   -0.18316E-04  3248   0.572E-04-0.114E-05
CGA:  25    -0.569692642718E+03   -0.94945E-05   -0.95029E-05  3248   0.404E-04-0.710E-06
  32 F= -.56969264E+03 E0= -.56968552E+03  d E =0.865405E-01  mag=    70.0000
       N       E                     dE             d eps       ncg     rms          ort
SDA:   1    -0.562820094294E+03    0.68725E+01    0.00000E+00  3248   0.296E+02 0.000E+00
CGA:   2    -0.566547114056E+03   -0.37270E+01   -0.37330E+01  3248   0.124E+02 0.551E-01
CGA:   3    -0.568603681642E+03   -0.20566E+01   -0.20585E+01  3248   0.479E+01-0.112E+00
CGA:   4    -0.569378967785E+03   -0.77529E+00   -0.77303E+00  3248   0.208E+01 0.180E+00
CGA:   5    -0.569622678068E+03   -0.24371E+00   -0.22073E+00  3248   0.700E+00 0.303E-01
CGA:   6    -0.569729011081E+03   -0.10633E+00   -0.10641E+00  3248   0.183E+00 0.892E-02
CGA:   7    -0.569757079864E+03   -0.28069E-01   -0.28060E-01  3248   0.852E-01-0.190E-02
CGA:   8    -0.569768344717E+03   -0.11265E-01   -0.11323E-01  3248   0.420E-01 0.112E-02
CGA:   9    -0.569773994354E+03   -0.56496E-02   -0.56345E-02  3248   0.166E-01-0.252E-03
CGA:  10    -0.569776601561E+03   -0.26072E-02   -0.26055E-02  3248   0.995E-02 0.151E-03
CGA:  11    -0.569778174765E+03   -0.15732E-02   -0.15739E-02  3248   0.503E-02-0.750E-04
CGA:  12    -0.569779059323E+03   -0.88456E-03   -0.88323E-03  3248   0.355E-02 0.395E-04
CGA:  13    -0.569779572623E+03   -0.51330E-03   -0.51307E-03  3248   0.215E-02-0.555E-05
CGA:  14    -0.569779968095E+03   -0.39547E-03   -0.39508E-03  3248   0.119E-02 0.892E-05
CGA:  15    -0.569780189523E+03   -0.22143E-03   -0.22178E-03  3248   0.100E-02-0.889E-05
CGA:  16    -0.569780335358E+03   -0.14583E-03   -0.14585E-03  3248   0.530E-03-0.126E-05
CGA:  17    -0.569780432611E+03   -0.97253E-04   -0.97347E-04  3248   0.380E-03-0.255E-05
CGA:  18    -0.569780494508E+03   -0.61897E-04   -0.61886E-04  3248   0.226E-03 0.104E-05
CGA:  19    -0.569780537494E+03   -0.42986E-04   -0.43012E-04  3248   0.164E-03-0.636E-06
CGA:  20    -0.569780560228E+03   -0.22734E-04   -0.22737E-04  3248   0.859E-04-0.815E-07
CGA:  21    -0.569780576719E+03   -0.16490E-04   -0.16514E-04  3248   0.512E-04-0.648E-06
CGA:  22    -0.569780584889E+03   -0.81702E-05   -0.81703E-05  3248   0.339E-04-0.309E-06
  33 F= -.56978058E+03 E0= -.56977313E+03  d E =-.879422E-01  mag=    70.0000
       N       E                     dE             d eps       ncg     rms          ort
SDA:   1    -0.569519703226E+03    0.26087E+00    0.00000E+00  3248   0.101E+01 0.000E+00
CGA:   2    -0.569671980178E+03   -0.15228E+00   -0.15230E+00  3248   0.472E+00 0.107E-02
CGA:   3    -0.569740494219E+03   -0.68514E-01   -0.68390E-01  3248   0.222E+00-0.337E-02
CGA:   4    -0.569768356752E+03   -0.27863E-01   -0.28117E-01  3248   0.108E+00 0.214E-02
CGA:   5    -0.569781048386E+03   -0.12692E-01   -0.12571E-01  3248   0.282E-01-0.394E-03
CGA:   6    -0.569785508602E+03   -0.44602E-02   -0.44597E-02  3248   0.857E-02 0.769E-04
CGA:   7    -0.569786523026E+03   -0.10144E-02   -0.10107E-02  3248   0.408E-02-0.214E-04
CGA:   8    -0.569787079192E+03   -0.55617E-03   -0.55655E-03  3248   0.157E-02 0.749E-05
CGA:   9    -0.569787336330E+03   -0.25714E-03   -0.25718E-03  3248   0.708E-03-0.199E-05
CGA:  10    -0.569787438907E+03   -0.10258E-03   -0.10261E-03  3248   0.505E-03 0.237E-05
CGA:  11    -0.569787520125E+03   -0.81218E-04   -0.81222E-04  3248   0.224E-03 0.261E-07
CGA:  12    -0.569787564343E+03   -0.44218E-04   -0.44179E-04  3248   0.197E-03 0.760E-06
CGA:  13    -0.569787592811E+03   -0.28468E-04   -0.28462E-04  3248   0.110E-03-0.306E-06
CGA:  14    -0.569787615007E+03   -0.22197E-04   -0.22199E-04  3248   0.766E-04-0.611E-07
CGA:  15    -0.569787626764E+03   -0.11756E-04   -0.11756E-04  3248   0.536E-04-0.262E-06
CGA:  16    -0.569787636399E+03   -0.96356E-05   -0.96294E-05  3248   0.299E-04 0.232E-06
  34 F= -.56978764E+03 E0= -.56978023E+03  d E =-.705151E-02  mag=    70.0000
       N       E                     dE             d eps       ncg     rms          ort
SDA:   1    -0.567815023198E+03    0.19726E+01    0.00000E+00  3248   0.735E+01 0.000E+00
CGA:   2    -0.568950231891E+03   -0.11352E+01   -0.11357E+01  3248   0.341E+01 0.511E-01
CGA:   3    -0.569442686371E+03   -0.49245E+00   -0.48780E+00  3248   0.179E+01-0.106E+00
CGA:   4    -0.569650736046E+03   -0.20805E+00   -0.21385E+00  3248   0.728E+00 0.413E-01
CGA:   5    -0.569746391234E+03   -0.95655E-01   -0.94501E-01  3248   0.210E+00-0.104E-01
CGA:   6    -0.569777301386E+03   -0.30910E-01   -0.30930E-01  3248   0.687E-01 0.186E-02
CGA:   7    -0.569784899462E+03   -0.75981E-02   -0.74931E-02  3248   0.287E-01-0.168E-03
CGA:   8    -0.569789282554E+03   -0.43831E-02   -0.43827E-02  3248   0.114E-01 0.182E-03
CGA:   9    -0.569791091471E+03   -0.18089E-02   -0.18095E-02  3248   0.594E-02-0.523E-04
CGA:  10    -0.569791880828E+03   -0.78936E-03   -0.79065E-03  3248   0.362E-02 0.276E-04
CGA:  11    -0.569792552493E+03   -0.67166E-03   -0.67213E-03  3248   0.182E-02-0.843E-05
CGA:  12    -0.569792872917E+03   -0.32042E-03   -0.32008E-03  3248   0.163E-02 0.102E-04
CGA:  13    -0.569793123374E+03   -0.25046E-03   -0.25045E-03  3248   0.836E-03-0.320E-05
CGA:  14    -0.569793294930E+03   -0.17156E-03   -0.17144E-03  3248   0.634E-03 0.154E-05
CGA:  15    -0.569793385458E+03   -0.90528E-04   -0.90475E-04  3248   0.394E-03-0.198E-05
CGA:  16    -0.569793461328E+03   -0.75870E-04   -0.75820E-04  3248   0.232E-03 0.114E-05
CGA:  17    -0.569793498342E+03   -0.37014E-04   -0.37013E-04  3248   0.166E-03 0.766E-06
CGA:  18    -0.569793525340E+03   -0.26999E-04   -0.26991E-04  3248   0.860E-04 0.151E-05
CGA:  19    -0.569793541752E+03   -0.16411E-04   -0.16415E-04  3248   0.655E-04-0.112E-06
CGA:  20    -0.569793550960E+03   -0.92080E-05   -0.91987E-05  3248   0.300E-04-0.541E-06
  35 F= -.56979355E+03 E0= -.56978619E+03  d E =-.591456E-02  mag=    70.0000
       N       E                     dE             d eps       ncg     rms          ort
SDA:   1    -0.569746442899E+03    0.47099E-01    0.00000E+00  3248   0.153E+00 0.000E+00
CGA:   2    -0.569773457902E+03   -0.27015E-01   -0.27018E-01  3248   0.861E-01-0.130E-03
CGA:   3    -0.569786853273E+03   -0.13395E-01   -0.13398E-01  3248   0.401E-01 0.218E-03
CGA:   4    -0.569791624499E+03   -0.47712E-02   -0.47414E-02  3248   0.169E-01-0.932E-04
CGA:   5    -0.569793420773E+03   -0.17963E-02   -0.18044E-02  3248   0.458E-02 0.356E-05
CGA:   6    -0.569794148475E+03   -0.72770E-03   -0.72774E-03  3248   0.129E-02-0.970E-05
CGA:   7    -0.569794315869E+03   -0.16739E-03   -0.16743E-03  3248   0.633E-03-0.126E-05
CGA:   8    -0.569794393308E+03   -0.77440E-04   -0.77333E-04  3248   0.263E-03-0.190E-05
CGA:   9    -0.569794433775E+03   -0.40467E-04   -0.40467E-04  3248   0.966E-04 0.628E-07
CGA:  10    -0.569794450305E+03   -0.16530E-04   -0.16536E-04  3248   0.748E-04-0.235E-06
CGA:  11    -0.569794459827E+03   -0.95214E-05   -0.95247E-05  3248   0.307E-04 0.608E-07
  36 F= -.56979446E+03 E0= -.56978710E+03  d E =-.908867E-03  mag=    70.0000
