       N       E                     dE             d eps       ncg     rms          ort
DAV:   1     0.180841435361E+05    0.18084E+05   -0.67686E+05  1536   0.178E+03
DAV:   2     0.160087077961E+04   -0.16483E+05   -0.15850E+05  1536   0.549E+02
DAV:   3    -0.140777829701E+04   -0.30086E+04   -0.29008E+04  1536   0.215E+02
DAV:   4    -0.164378889446E+04   -0.23601E+03   -0.22428E+03  1536   0.636E+01
DAV:   5    -0.165621456897E+04   -0.12426E+02   -0.11542E+02  1536   0.136E+01
SDA:   6    -0.202097382288E+03    0.14541E+04   -0.11542E+02  1536   0.871E+04 0.000E+00
CGA:   7    -0.882406521858E+03   -0.68031E+03   -0.70911E+03  1536   0.913E+04-0.345E+03
CGA:   8    -0.106121748244E+04   -0.17881E+03   -0.35560E+03  1536   0.468E+04-0.385E+04
CGA:   9    -0.114178905864E+04   -0.80572E+02   -0.59500E+02  1536   0.664E+03 0.590E+03
CGA:  10    -0.115057150453E+04   -0.87824E+01   -0.34766E+02  1536   0.208E+04-0.356E+03
CGA:  11    -0.116136655210E+04   -0.10795E+02   -0.54092E+02  1536   0.331E+04-0.254E+04
CGA:  12    -0.114341024989E+04    0.17956E+02   -0.10378E+03  1536   0.367E+04-0.232E+04
CGA:  13    -0.114966109411E+04   -0.62508E+01   -0.94814E+02  1536   0.599E+04-0.551E+04
CGA:  14    -0.110366146287E+04    0.46000E+02   -0.19318E+03  1536   0.681E+04-0.479E+04
CGA:  15    -0.103858756102E+04    0.65074E+02   -0.21027E+03  1536   0.126E+05-0.960E+04
CGA:  16    -0.860024615335E+03    0.17856E+03   -0.44819E+03  1536   0.183E+05-0.126E+05
CGA:  17    -0.429289456131E+03    0.43074E+03   -0.73617E+03  1536   0.444E+05-0.284E+05
CGA:  18     0.359013043421E+03    0.78830E+03   -0.19543E+04  1536   0.581E+05-0.383E+05
CGA:  19    -0.417377530567E+03   -0.77639E+03   -0.18523E+04  1536   0.320E+05-0.434E+05
CGA:  20    -0.734499682502E+02    0.34393E+03   -0.12469E+04  1536   0.532E+05-0.455E+05
CGA:  21    -0.933181735571E+02   -0.19868E+02   -0.18744E+04  1536   0.535E+05-0.513E+05
CGA:  22    -0.434144844670E+02    0.49904E+02   -0.19936E+04  1536   0.430E+05-0.415E+05
CGA:  23    -0.451756504962E+03   -0.40834E+03   -0.14189E+04  1536   0.365E+05-0.461E+05
CGA:  24    -0.273120784883E+03    0.17864E+03   -0.13291E+04  1536   0.508E+05-0.468E+05
CGA:  25     0.339186333946E+02    0.30704E+03   -0.19094E+04  1536   0.591E+05-0.486E+05
CGA:  26    -0.969405933159E+02   -0.13086E+03   -0.21382E+04  1536   0.404E+05-0.411E+05
CGA:  27    -0.469961537605E+03   -0.37302E+03   -0.13536E+04  1536   0.340E+05-0.429E+05
CGA:  28    -0.738272244561E+03   -0.26831E+03   -0.10503E+04  1536   0.286E+05-0.346E+05
CGA:  29    -0.924742601012E+03   -0.18647E+03   -0.83766E+03  1536   0.221E+05-0.274E+05
CGA:  30    -0.112068799711E+04   -0.19595E+03   -0.56575E+03  1536   0.840E+04-0.125E+05
CGA:  31    -0.127585471309E+04   -0.15517E+03   -0.15545E+03  1536   0.314E+03-0.147E+04
CGA:  32    -0.128205691906E+04   -0.62022E+01   -0.49748E+01  1536   0.321E+02 0.582E+02
CGA:  33    -0.128372198081E+04   -0.16651E+01   -0.16227E+01  1536   0.675E+02 0.850E-01
CGA:  34    -0.128809917263E+04   -0.43772E+01   -0.45327E+01  1536   0.159E+03 0.790E+01
CGA:  35    -0.129077319897E+04   -0.26740E+01   -0.34699E+01  1536   0.226E+03-0.748E+02
CGA:  36    -0.129124929642E+04   -0.47610E+00   -0.15380E+01  1536   0.254E+03-0.756E+02
CGA:  37    -0.129193158265E+04   -0.68229E+00   -0.14731E+01  1536   0.137E+03-0.858E+02
CGA:  38    -0.129252472154E+04   -0.59314E+00   -0.67494E+00  1536   0.109E+03-0.177E+02
CGA:  39    -0.129309921316E+04   -0.57449E+00   -0.61536E+00  1536   0.779E+02-0.116E+02
CGA:  40    -0.129342143262E+04   -0.32222E+00   -0.36017E+00  1536   0.505E+02-0.880E+01
CGA:  41    -0.129362280291E+04   -0.20137E+00   -0.22449E+00  1536   0.382E+02-0.456E+01
CGA:  42    -0.129380829601E+04   -0.18549E+00   -0.18915E+00  1536   0.381E+02-0.577E+00
CGA:  43    -0.129405533988E+04   -0.24704E+00   -0.26665E+00  1536   0.500E+02-0.250E+01
CGA:  44    -0.129435006811E+04   -0.29473E+00   -0.43840E+00  1536   0.767E+02-0.140E+02
CGA:  45    -0.129460779902E+04   -0.25773E+00   -0.42889E+00  1536   0.894E+02-0.199E+02
CGA:  46    -0.129485917315E+04   -0.25137E+00   -0.51648E+00  1536   0.976E+02-0.369E+02
CGA:  47    -0.129487808013E+04   -0.18907E-01   -0.53068E+00  1536   0.151E+03-0.471E+02
CGA:  48    -0.129528856481E+04   -0.41048E+00   -0.48549E+00  1536   0.122E+03-0.115E+02
CGA:  49    -0.129578501051E+04   -0.49645E+00   -0.93312E+00  1536   0.645E+02-0.475E+02
CGA:  50    -0.129601558172E+04   -0.23057E+00   -0.28392E+00  1536   0.467E+02-0.670E+01
CGA:  51    -0.129633136234E+04   -0.31578E+00   -0.35105E+00  1536   0.279E+02-0.382E+01
CGA:  52    -0.129654266241E+04   -0.21130E+00   -0.21921E+00  1536   0.180E+02-0.755E+00
CGA:  53    -0.129671281739E+04   -0.17015E+00   -0.17380E+00  1536   0.159E+02-0.295E+00
CGA:  54    -0.129692890445E+04   -0.21609E+00   -0.23070E+00  1536   0.247E+02-0.587E+00
CGA:  55    -0.129735803787E+04   -0.42913E+00   -0.46028E+00  1536   0.385E+02-0.316E+00
CGA:  56    -0.129798444245E+04   -0.62640E+00   -0.66455E+00  1536   0.327E+02-0.459E+00
CGA:  57    -0.129852629647E+04   -0.54185E+00   -0.54116E+00  1536   0.242E+02 0.457E+00
CGA:  58    -0.129898876014E+04   -0.46246E+00   -0.46117E+00  1536   0.196E+02 0.214E-01
CGA:  59    -0.129932531108E+04   -0.33655E+00   -0.33853E+00  1536   0.115E+02-0.488E-01
CGA:  60    -0.129950846189E+04   -0.18315E+00   -0.18582E+00  1536   0.704E+01-0.706E-01
SDA:  61    -0.129968118104E+04   -0.17272E+00   -0.17371E+00  1536   0.953E+01 0.933E-01
CGA:  62    -0.130013517048E+04   -0.45399E+00   -0.45014E+00  1536   0.489E+01 0.183E+00
CGA:  63    -0.130058101885E+04   -0.44585E+00   -0.42243E+00  1536   0.362E+01 0.444E+00
CGA:  64    -0.130093610803E+04   -0.35509E+00   -0.35514E+00  1536   0.140E+01-0.101E-01
CGA:  65    -0.130103938369E+04   -0.10328E+00   -0.10352E+00  1536   0.127E+01-0.668E-02
CGA:  66    -0.130119288467E+04   -0.15350E+00   -0.15441E+00  1536   0.181E+01-0.125E-01
CGA:  67    -0.130130946765E+04   -0.11658E+00   -0.11733E+00  1536   0.705E+00-0.276E-01
CGA:  68    -0.130134961544E+04   -0.40148E-01   -0.40275E-01  1536   0.365E+00-0.666E-02
CGA:  69    -0.130138880479E+04   -0.39189E-01   -0.39268E-01  1536   0.588E+00-0.115E-02
CGA:  70    -0.130142791933E+04   -0.39115E-01   -0.39203E-01  1536   0.166E+00-0.382E-02
CGA:  71    -0.130144072696E+04   -0.12808E-01   -0.12811E-01  1536   0.105E+00-0.139E-03
CGA:  72    -0.130146014849E+04   -0.19422E-01   -0.19546E-01  1536   0.249E+00-0.139E-02
CGA:  73    -0.130147403865E+04   -0.13890E-01   -0.13891E-01  1536   0.101E+00-0.846E-03
CGA:  74    -0.130148134305E+04   -0.73044E-02   -0.72944E-02  1536   0.825E-01 0.514E-03
CGA:  75    -0.130149160113E+04   -0.10258E-01   -0.10442E-01  1536   0.158E+00-0.268E-02
CGA:  76    -0.130150007056E+04   -0.84694E-02   -0.84533E-02  1536   0.575E-01-0.980E-03
CGA:  77    -0.130150375857E+04   -0.36880E-02   -0.36855E-02  1536   0.443E-01 0.430E-03
CGA:  78    -0.130150843819E+04   -0.46796E-02   -0.46970E-02  1536   0.813E-01-0.313E-03
CGA:  79    -0.130151287719E+04   -0.44390E-02   -0.44253E-02  1536   0.325E-01-0.423E-03
CGA:  80    -0.130151471585E+04   -0.18387E-02   -0.18383E-02  1536   0.184E-01 0.422E-04
CGA:  81    -0.130151590338E+04   -0.11875E-02   -0.11881E-02  1536   0.264E-01-0.921E-04
CGA:  82    -0.130151881495E+04   -0.29116E-02   -0.29490E-02  1536   0.292E-01-0.752E-03
CGA:  83    -0.130152003330E+04   -0.12183E-02   -0.12124E-02  1536   0.151E-01-0.192E-04
CGA:  84    -0.130152080429E+04   -0.77099E-03   -0.76837E-03  1536   0.996E-02-0.103E-03
CGA:  85    -0.130152178162E+04   -0.97733E-03   -0.99158E-03  1536   0.217E-01-0.364E-03
CGA:  86    -0.130152276477E+04   -0.98315E-03   -0.97027E-03  1536   0.895E-02-0.219E-03
CGA:  87    -0.130152315687E+04   -0.39210E-03   -0.38900E-03  1536   0.698E-02-0.984E-04
CGA:  88    -0.130152356072E+04   -0.40385E-03   -0.40287E-03  1536   0.808E-02-0.170E-03
CGA:  89    -0.130152411507E+04   -0.55436E-03   -0.55999E-03  1536   0.119E-01-0.508E-03
CGA:  90    -0.130152453632E+04   -0.42124E-03   -0.40195E-03  1536   0.678E-02 0.853E-04
CGA:  91    -0.130152475996E+04   -0.22364E-03   -0.22268E-03  1536   0.407E-02-0.695E-04
SDA:  92    -0.130152493096E+04   -0.17100E-03   -0.17095E-03  1536   0.436E-02-0.327E-04
CGA:  93    -0.130152518757E+04   -0.25662E-03   -0.25662E-03  1536   0.443E-02 0.147E-04
CGA:  94    -0.130152578780E+04   -0.60023E-03   -0.59287E-03  1536   0.102E-01 0.935E-04
CGA:  95    -0.130152657658E+04   -0.78878E-03   -0.79081E-03  1536   0.847E-02-0.693E-04
CGA:  96    -0.130152707015E+04   -0.49356E-03   -0.49280E-03  1536   0.307E-02-0.851E-05
CGA:  97    -0.130152738079E+04   -0.31064E-03   -0.31438E-03  1536   0.416E-02-0.845E-04
CGA:  98    -0.130152760166E+04   -0.22088E-03   -0.22027E-03  1536   0.161E-02-0.504E-05
CGA:  99    -0.130152768502E+04   -0.83357E-04   -0.83186E-04  1536   0.577E-03-0.829E-05
CGA: 100    -0.130152773110E+04   -0.46075E-04   -0.46398E-04  1536   0.977E-03-0.208E-04
CGA: 101    -0.130152780144E+04   -0.70348E-04   -0.70750E-04  1536   0.653E-03-0.407E-04
CGA: 102    -0.130152784310E+04   -0.41657E-04   -0.41688E-04  1536   0.350E-03-0.271E-04
CGA: 103    -0.130152786863E+04   -0.25531E-04   -0.25788E-04  1536   0.635E-03-0.214E-04
CGA: 104    -0.130152791923E+04   -0.50599E-04   -0.55680E-04  1536   0.753E-03-0.164E-03
CGA: 105    -0.130152793277E+04   -0.13537E-04   -0.11829E-04  1536   0.408E-03 0.489E-04
CGA: 106    -0.130152794273E+04   -0.99658E-05   -0.96547E-05  1536   0.218E-03 0.413E-05
   1 F= -.13015279E+04 E0= -.13014842E+04  d E =-.130153E+04  mag=    70.0000
       N       E                     dE             d eps       ncg     rms          ort
SDA:   1    -0.130151743284E+04    0.10500E-01    0.00000E+00  1536   0.191E+00 0.000E+00
CGA:   2    -0.130152301853E+04   -0.55857E-02   -0.55975E-02  1536   0.305E-01-0.208E-03
CGA:   3    -0.130152493510E+04   -0.19166E-02   -0.19168E-02  1536   0.280E-01-0.294E-04
CGA:   4    -0.130152637257E+04   -0.14375E-02   -0.14376E-02  1536   0.848E-02 0.846E-05
CGA:   5    -0.130152706229E+04   -0.68972E-03   -0.68997E-03  1536   0.851E-02-0.111E-04
CGA:   6    -0.130152775876E+04   -0.69648E-03   -0.69686E-03  1536   0.742E-02-0.179E-04
CGA:   7    -0.130152808164E+04   -0.32288E-03   -0.32275E-03  1536   0.152E-02-0.552E-05
CGA:   8    -0.130152815452E+04   -0.72885E-04   -0.72920E-04  1536   0.782E-03 0.287E-05
CGA:   9    -0.130152820331E+04   -0.48785E-04   -0.48773E-04  1536   0.660E-03 0.591E-05
CGA:  10    -0.130152824742E+04   -0.44117E-04   -0.44067E-04  1536   0.269E-03 0.828E-05
CGA:  11    -0.130152825981E+04   -0.12386E-04   -0.12426E-04  1536   0.864E-04 0.259E-05
CGA:  12    -0.130152826827E+04   -0.84572E-05   -0.84078E-05  1536   0.110E-03 0.130E-05
   2 F= -.13015283E+04 E0= -.13014848E+04  d E =-.325533E-03  mag=    70.0000
       N       E                     dE             d eps       ncg     rms          ort
SDA:   1    -0.130151723984E+04    0.11020E-01    0.00000E+00  1536   0.201E+00 0.000E+00
CGA:   2    -0.130152216390E+04   -0.49241E-02   -0.49522E-02  1536   0.316E-01-0.777E-03
CGA:   3    -0.130152487674E+04   -0.27128E-02   -0.27131E-02  1536   0.271E-01-0.764E-05
CGA:   4    -0.130152620551E+04   -0.13288E-02   -0.13286E-02  1536   0.112E-01-0.333E-05
CGA:   5    -0.130152695063E+04   -0.74511E-03   -0.74507E-03  1536   0.977E-02 0.548E-05
CGA:   6    -0.130152772788E+04   -0.77726E-03   -0.77735E-03  1536   0.782E-02-0.287E-05
CGA:   7    -0.130152807715E+04   -0.34927E-03   -0.34937E-03  1536   0.174E-02 0.231E-05
CGA:   8    -0.130152815997E+04   -0.82823E-04   -0.82840E-04  1536   0.103E-02 0.110E-05
CGA:   9    -0.130152822993E+04   -0.69957E-04   -0.69954E-04  1536   0.854E-03 0.463E-06
CGA:  10    -0.130152828810E+04   -0.58173E-04   -0.58167E-04  1536   0.209E-03 0.648E-06
CGA:  11    -0.130152829849E+04   -0.10389E-04   -0.10393E-04  1536   0.137E-03 0.306E-06
CGA:  12    -0.130152830945E+04   -0.10955E-04   -0.10950E-04  1536   0.130E-03 0.255E-06
CGA:  13    -0.130152831929E+04   -0.98477E-05   -0.98468E-05  1536   0.843E-04 0.538E-07
   3 F= -.13015283E+04 E0= -.13014848E+04  d E =-.510265E-04  mag=    70.0000
