       N       E                     dE             d eps       ncg     rms          ort
DAV:   1     0.166082309707E+05    0.16608E+05   -0.69459E+05  1536   0.180E+03
DAV:   2     0.118255660139E+04   -0.15426E+05   -0.14807E+05  1536   0.541E+02
DAV:   3    -0.103308665469E+04   -0.22156E+04   -0.20286E+04  1536   0.197E+02
DAV:   4    -0.128722943825E+04   -0.25414E+03   -0.23877E+03  1536   0.581E+01
DAV:   5    -0.130007267639E+04   -0.12843E+02   -0.12522E+02  1536   0.127E+01
SDA:   6    -0.130041396285E+04   -0.34129E+00   -0.12522E+02  1536   0.101E+01 0.000E+00
CGA:   7    -0.130055963574E+04   -0.14567E+00   -0.14570E+00  1536   0.309E+01-0.316E-03
CGA:   8    -0.130069008727E+04   -0.13045E+00   -0.13085E+00  1536   0.717E+00-0.997E-02
CGA:   9    -0.130074348197E+04   -0.53395E-01   -0.53231E-01  1536   0.752E+00 0.210E-02
CGA:  10    -0.130080565058E+04   -0.62169E-01   -0.62288E-01  1536   0.533E+00 0.128E-03
CGA:  11    -0.130083663900E+04   -0.30988E-01   -0.30944E-01  1536   0.381E+00 0.658E-03
CGA:  12    -0.130087360740E+04   -0.36968E-01   -0.36870E-01  1536   0.593E+00-0.152E-03
CGA:  13    -0.130091563714E+04   -0.42030E-01   -0.42155E-01  1536   0.376E+00-0.257E-02
CGA:  14    -0.130093614431E+04   -0.20507E-01   -0.20336E-01  1536   0.251E+00 0.130E-02
CGA:  15    -0.130096322676E+04   -0.27082E-01   -0.27027E-01  1536   0.333E+00-0.569E-03
CGA:  16    -0.130098032184E+04   -0.17095E-01   -0.17114E-01  1536   0.146E+00-0.105E-02
CGA:  17    -0.130098690354E+04   -0.65817E-02   -0.65956E-02  1536   0.871E-01-0.520E-03
CGA:  18    -0.130099430590E+04   -0.74024E-02   -0.73948E-02  1536   0.773E-01-0.638E-04
CGA:  19    -0.130099966203E+04   -0.53561E-02   -0.53536E-02  1536   0.262E-01-0.352E-04
CGA:  20    -0.130100171148E+04   -0.20494E-02   -0.20505E-02  1536   0.231E-01-0.730E-05
CGA:  21    -0.130100387292E+04   -0.21614E-02   -0.21609E-02  1536   0.231E-01-0.877E-05
CGA:  22    -0.130100504893E+04   -0.11760E-02   -0.11750E-02  1536   0.971E-02-0.317E-04
CGA:  23    -0.130100563713E+04   -0.58820E-03   -0.58634E-03  1536   0.894E-02-0.366E-04
CGA:  24    -0.130100648515E+04   -0.84802E-03   -0.84573E-03  1536   0.112E-01-0.728E-04
CGA:  25    -0.130100696571E+04   -0.48056E-03   -0.47758E-03  1536   0.353E-02-0.393E-04
CGA:  26    -0.130100725165E+04   -0.28595E-03   -0.28589E-03  1536   0.372E-02-0.230E-05
CGA:  27    -0.130100763060E+04   -0.37895E-03   -0.37928E-03  1536   0.224E-02 0.201E-04
CGA:  28    -0.130100775037E+04   -0.11976E-03   -0.12053E-03  1536   0.147E-02 0.123E-04
CGA:  29    -0.130100785399E+04   -0.10362E-03   -0.10433E-03  1536   0.162E-02 0.158E-04
CGA:  30    -0.130100800565E+04   -0.15166E-03   -0.15223E-03  1536   0.866E-03 0.291E-04
CGA:  31    -0.130100805761E+04   -0.51957E-04   -0.52672E-04  1536   0.682E-03 0.138E-04
CGA:  32    -0.130100811959E+04   -0.61979E-04   -0.62390E-04  1536   0.946E-03 0.219E-04
CGA:  33    -0.130100818973E+04   -0.70141E-04   -0.71116E-04  1536   0.586E-03 0.278E-04
CGA:  34    -0.130100821383E+04   -0.24097E-04   -0.24761E-04  1536   0.316E-03 0.102E-04
CGA:  35    -0.130100824995E+04   -0.36118E-04   -0.35972E-04  1536   0.374E-03 0.162E-04
CGA:  36    -0.130100828073E+04   -0.30782E-04   -0.31162E-04  1536   0.150E-03 0.158E-04
SDA:  37    -0.130100829247E+04   -0.11746E-04   -0.11999E-04  1536   0.162E-03 0.987E-05
CGA:  38    -0.130100829804E+04   -0.55686E-05   -0.56718E-05  1536   0.802E-04 0.154E-05
   1 F= -.13010083E+04 E0= -.13009711E+04  d E =-.130101E+04  mag=    70.0000
       N       E                     dE             d eps       ncg     rms          ort
SDA:   1    -0.130096813459E+04    0.40158E-01    0.00000E+00  1536   0.405E+00 0.000E+00
CGA:   2    -0.130098040317E+04   -0.12269E-01   -0.12367E-01  1536   0.155E+00-0.260E-02
CGA:   3    -0.130099311010E+04   -0.12707E-01   -0.12705E-01  1536   0.125E+00-0.131E-03
CGA:   4    -0.130099932813E+04   -0.62180E-02   -0.62131E-02  1536   0.451E-01-0.457E-04
CGA:   5    -0.130100378627E+04   -0.44581E-02   -0.44581E-02  1536   0.477E-01-0.711E-05
CGA:   6    -0.130100700586E+04   -0.32196E-02   -0.32190E-02  1536   0.260E-01-0.694E-05
CGA:   7    -0.130100793746E+04   -0.93159E-03   -0.93125E-03  1536   0.539E-02 0.155E-04
CGA:   8    -0.130100829406E+04   -0.35660E-03   -0.35688E-03  1536   0.479E-02 0.108E-04
CGA:   9    -0.130100859417E+04   -0.30011E-03   -0.30039E-03  1536   0.308E-02 0.121E-04
CGA:  10    -0.130100875160E+04   -0.15743E-03   -0.15766E-03  1536   0.639E-03 0.720E-05
CGA:  11    -0.130100879164E+04   -0.40037E-04   -0.40077E-04  1536   0.539E-03 0.185E-05
CGA:  12    -0.130100883221E+04   -0.40568E-04   -0.40579E-04  1536   0.532E-03 0.149E-05
CGA:  13    -0.130100886108E+04   -0.28870E-04   -0.28901E-04  1536   0.161E-03 0.112E-05
CGA:  14    -0.130100886990E+04   -0.88249E-05   -0.88471E-05  1536   0.131E-03 0.806E-06
CGA:  15    -0.130100888270E+04   -0.12800E-04   -0.12763E-04  1536   0.173E-03 0.213E-05
CGA:  16    -0.130100889327E+04   -0.10566E-04   -0.10618E-04  1536   0.712E-04 0.258E-05
CGA:  17    -0.130100889667E+04   -0.34068E-05   -0.34567E-05  1536   0.457E-04 0.155E-05
   2 F= -.13010089E+04 E0= -.13009717E+04  d E =-.598633E-03  mag=    70.0000
