       N       E                     dE             d eps       ncg     rms          ort
DAV:   1     0.728755407090E+04    0.72876E+04   -0.28896E+05  1296   0.173E+03
DAV:   2     0.615622217277E+03   -0.66719E+04   -0.64314E+04  1296   0.525E+02
DAV:   3    -0.663409309880E+03   -0.12790E+04   -0.12391E+04  1296   0.206E+02
DAV:   4    -0.741113447873E+03   -0.77704E+02   -0.76019E+02  1296   0.589E+01
DAV:   5    -0.744880818311E+03   -0.37674E+01   -0.36094E+01  1296   0.113E+01
SDA:   6     0.444838029791E+02    0.78936E+03   -0.36094E+01  1296   0.471E+04 0.000E+00
CGA:   7    -0.448490105491E+03   -0.49297E+03   -0.55536E+03  1296   0.444E+03 0.188E+03
CGA:   8    -0.492266272726E+03   -0.43776E+02   -0.46932E+02  1296   0.337E+03-0.307E+02
CGA:   9    -0.523022451896E+03   -0.30756E+02   -0.32895E+02  1296   0.199E+03 0.112E+02
CGA:  10    -0.539876932657E+03   -0.16854E+02   -0.18740E+02  1296   0.109E+03-0.270E+02
CGA:  11    -0.548868023690E+03   -0.89911E+01   -0.83282E+01  1296   0.608E+02 0.643E+01
CGA:  12    -0.553236311274E+03   -0.43683E+01   -0.39735E+01  1296   0.375E+02-0.183E+01
CGA:  13    -0.555316133176E+03   -0.20798E+01   -0.21598E+01  1296   0.281E+02-0.268E+01
CGA:  14    -0.556908855746E+03   -0.15927E+01   -0.17594E+01  1296   0.246E+02-0.168E+01
CGA:  15    -0.557825116704E+03   -0.91626E+00   -0.11745E+01  1296   0.124E+02-0.385E+01
CGA:  16    -0.558336486793E+03   -0.51137E+00   -0.56632E+00  1296   0.765E+01-0.862E+00
CGA:  17    -0.558815777144E+03   -0.47929E+00   -0.52674E+00  1296   0.674E+01-0.300E+00
CGA:  18    -0.559259759992E+03   -0.44398E+00   -0.45264E+00  1296   0.374E+01-0.913E-01
CGA:  19    -0.559510866334E+03   -0.25111E+00   -0.26914E+00  1296   0.201E+01-0.863E-01
CGA:  20    -0.559676364342E+03   -0.16550E+00   -0.16845E+00  1296   0.158E+01-0.443E-02
CGA:  21    -0.559843677598E+03   -0.16731E+00   -0.16694E+00  1296   0.104E+01-0.356E-02
CGA:  22    -0.559932946986E+03   -0.89269E-01   -0.87269E-01  1296   0.712E+00 0.454E-02
CGA:  23    -0.560005778465E+03   -0.72831E-01   -0.73232E-01  1296   0.531E+00 0.217E-02
CGA:  24    -0.560054562692E+03   -0.48784E-01   -0.49031E-01  1296   0.389E+00 0.131E-03
CGA:  25    -0.560090452059E+03   -0.35889E-01   -0.35616E-01  1296   0.214E+00-0.124E-02
CGA:  26    -0.560112135141E+03   -0.21683E-01   -0.21633E-01  1296   0.222E+00-0.101E-02
CGA:  27    -0.560133450834E+03   -0.21316E-01   -0.21234E-01  1296   0.122E+00-0.743E-03
CGA:  28    -0.560143427668E+03   -0.99768E-02   -0.99344E-02  1296   0.839E-01-0.881E-04
CGA:  29    -0.560152187038E+03   -0.87594E-02   -0.87570E-02  1296   0.764E-01-0.982E-04
CGA:  30    -0.560159551849E+03   -0.73648E-02   -0.73694E-02  1296   0.543E-01 0.293E-04
CGA:  31    -0.560164115249E+03   -0.45634E-02   -0.45538E-02  1296   0.375E-01 0.176E-05
CGA:  32    -0.560168109585E+03   -0.39943E-02   -0.39932E-02  1296   0.405E-01-0.125E-04
CGA:  33    -0.560171933894E+03   -0.38243E-02   -0.38187E-02  1296   0.269E-01-0.148E-04
CGA:  34    -0.560174015395E+03   -0.20815E-02   -0.20776E-02  1296   0.172E-01 0.470E-04
CGA:  35    -0.560175781615E+03   -0.17662E-02   -0.17648E-02  1296   0.152E-01-0.217E-04
CGA:  36    -0.560177181444E+03   -0.13998E-02   -0.13989E-02  1296   0.118E-01-0.363E-05
SDA:  37    -0.560178201651E+03   -0.10202E-02   -0.10191E-02  1296   0.734E-02-0.122E-04
CGA:  38    -0.560178846555E+03   -0.64490E-03   -0.64416E-03  1296   0.440E-02-0.131E-04
CGA:  39    -0.560179618720E+03   -0.77217E-03   -0.77630E-03  1296   0.460E-02-0.596E-04
CGA:  40    -0.560180119599E+03   -0.50088E-03   -0.50074E-03  1296   0.187E-02-0.386E-04
CGA:  41    -0.560180424984E+03   -0.30538E-03   -0.30733E-03  1296   0.129E-02-0.362E-04
CGA:  42    -0.560180691123E+03   -0.26614E-03   -0.27011E-03  1296   0.176E-02-0.406E-04
CGA:  43    -0.560180940660E+03   -0.24954E-03   -0.25047E-03  1296   0.156E-02-0.300E-04
CGA:  44    -0.560181138059E+03   -0.19740E-03   -0.19761E-03  1296   0.838E-03-0.200E-04
CGA:  45    -0.560181302078E+03   -0.16402E-03   -0.16774E-03  1296   0.787E-03-0.447E-04
CGA:  46    -0.560181400883E+03   -0.98805E-04   -0.99079E-04  1296   0.634E-03-0.236E-04
CGA:  47    -0.560181487076E+03   -0.86193E-04   -0.86260E-04  1296   0.720E-03-0.133E-05
CGA:  48    -0.560181583586E+03   -0.96510E-04   -0.96522E-04  1296   0.575E-03 0.351E-05
CGA:  49    -0.560181682070E+03   -0.98484E-04   -0.98116E-04  1296   0.533E-03 0.100E-04
CGA:  50    -0.560181769570E+03   -0.87499E-04   -0.87032E-04  1296   0.721E-03 0.143E-04
CGA:  51    -0.560181852687E+03   -0.83118E-04   -0.83379E-04  1296   0.386E-03 0.104E-04
CGA:  52    -0.560181917622E+03   -0.64934E-04   -0.64426E-04  1296   0.364E-03 0.111E-04
CGA:  53    -0.560181974130E+03   -0.56509E-04   -0.56383E-04  1296   0.332E-03 0.350E-05
CGA:  54    -0.560182014592E+03   -0.40461E-04   -0.40447E-04  1296   0.189E-03-0.365E-05
CGA:  55    -0.560182037024E+03   -0.22432E-04   -0.22390E-04  1296   0.134E-03-0.542E-05
CGA:  56    -0.560182064887E+03   -0.27863E-04   -0.29037E-04  1296   0.163E-03-0.132E-04
CGA:  57    -0.560182081765E+03   -0.16878E-04   -0.16694E-04  1296   0.926E-04-0.925E-05
CGA:  58    -0.560182092760E+03   -0.10995E-04   -0.10954E-04  1296   0.798E-04-0.415E-05
CGA:  59    -0.560182105108E+03   -0.12348E-04   -0.12349E-04  1296   0.611E-04-0.220E-07
CGA:  60    -0.560182114993E+03   -0.98849E-05   -0.97721E-05  1296   0.462E-04 0.480E-05
   1 F= -.56018211E+03 E0= -.56017527E+03  d E =-.560182E+03  mag=     8.0000
       N       E                     dE             d eps       ncg     rms          ort
SDA:   1    -0.560179526171E+03    0.25789E-02    0.00000E+00  1296   0.235E-01 0.000E+00
CGA:   2    -0.560180940837E+03   -0.14147E-02   -0.14116E-02  1296   0.742E-02 0.424E-04
CGA:   3    -0.560181809197E+03   -0.86836E-03   -0.86862E-03  1296   0.287E-02 0.145E-04
CGA:   4    -0.560182298671E+03   -0.48947E-03   -0.48946E-03  1296   0.211E-02 0.982E-06
CGA:   5    -0.560182500927E+03   -0.20226E-03   -0.20226E-03  1296   0.431E-03-0.124E-05
CGA:   6    -0.560182545841E+03   -0.44914E-04   -0.44901E-04  1296   0.243E-03-0.450E-06
CGA:   7    -0.560182569655E+03   -0.23814E-04   -0.23833E-04  1296   0.845E-04 0.589E-06
CGA:   8    -0.560182578201E+03   -0.85460E-05   -0.85574E-05  1296   0.303E-04 0.392E-06
   2 F= -.56018258E+03 E0= -.56017570E+03  d E =-.463208E-03  mag=     8.0000
