       N       E                     dE             d eps       ncg     rms          ort
DAV:   1     0.180280884192E+05    0.18028E+05   -0.67600E+05  1536   0.178E+03
DAV:   2     0.157379164597E+04   -0.16454E+05   -0.15829E+05  1536   0.550E+02
DAV:   3    -0.141299121354E+04   -0.29868E+04   -0.28805E+04  1536   0.214E+02
DAV:   4    -0.164348644221E+04   -0.23050E+03   -0.21870E+03  1536   0.629E+01
DAV:   5    -0.165600587024E+04   -0.12519E+02   -0.11684E+02  1536   0.135E+01
SDA:   6    -0.197764775018E+03    0.14582E+04   -0.11684E+02  1536   0.873E+04 0.000E+00
CGA:   7    -0.925511775171E+03   -0.72775E+03   -0.79862E+03  1536   0.727E+04-0.654E+03
CGA:   8    -0.111945734270E+04   -0.19395E+03   -0.26136E+03  1536   0.146E+04-0.125E+04
CGA:   9    -0.116169737809E+04   -0.42240E+02   -0.48498E+02  1536   0.110E+04-0.460E+03
CGA:  10    -0.117611048441E+04   -0.14413E+02   -0.29615E+02  1536   0.200E+04-0.451E+03
CGA:  11    -0.120829865610E+04   -0.32188E+02   -0.43469E+02  1536   0.171E+04-0.356E+03
CGA:  12    -0.123833907024E+04   -0.30040E+02   -0.47174E+02  1536   0.679E+03-0.450E+03
CGA:  13    -0.124901339510E+04   -0.10674E+02   -0.15607E+02  1536   0.373E+03-0.157E+03
CGA:  14    -0.126140395813E+04   -0.12391E+02   -0.99308E+01  1536   0.180E+03 0.515E+02
CGA:  15    -0.127147698973E+04   -0.10073E+02   -0.13683E+02  1536   0.542E+03-0.329E+02
CGA:  16    -0.127054934183E+04    0.92765E+00   -0.11759E+02  1536   0.118E+04-0.511E+03
CGA:  17    -0.125869163241E+04    0.11858E+02   -0.36484E+02  1536   0.218E+04-0.107E+04
CGA:  18    -0.125005641708E+04    0.86352E+01   -0.51559E+02  1536   0.349E+04-0.246E+04
CGA:  19    -0.124116360342E+04    0.88928E+01   -0.88043E+02  1536   0.290E+04-0.233E+04
CGA:  20    -0.125464725245E+04   -0.13484E+02   -0.66671E+02  1536   0.305E+04-0.342E+04
CGA:  21    -0.125968403763E+04   -0.50368E+01   -0.72717E+02  1536   0.207E+04-0.212E+04
CGA:  22    -0.127670874739E+04   -0.17025E+02   -0.44757E+02  1536   0.133E+04-0.184E+04
CGA:  23    -0.127900624772E+04   -0.22975E+01   -0.32781E+02  1536   0.102E+04-0.102E+04
CGA:  24    -0.128875244623E+04   -0.97462E+01   -0.21033E+02  1536   0.370E+03-0.598E+03
CGA:  25    -0.129256789356E+04   -0.38154E+01   -0.73357E+01  1536   0.912E+02-0.147E+03
CGA:  26    -0.129433746306E+04   -0.17696E+01   -0.17316E+01  1536   0.112E+02 0.275E+01
CGA:  27    -0.129551744989E+04   -0.11800E+01   -0.11500E+01  1536   0.270E+02 0.222E+01
CGA:  28    -0.129759250496E+04   -0.20751E+01   -0.22125E+01  1536   0.123E+02 0.171E+01
CGA:  29    -0.129828096249E+04   -0.68846E+00   -0.72403E+00  1536   0.726E+01-0.867E-01
CGA:  30    -0.129888981321E+04   -0.60885E+00   -0.61350E+00  1536   0.607E+01 0.524E+00
CGA:  31    -0.129943890213E+04   -0.54909E+00   -0.55024E+00  1536   0.524E+01 0.122E+00
CGA:  32    -0.129987679871E+04   -0.43790E+00   -0.44004E+00  1536   0.297E+01 0.161E+00
CGA:  33    -0.130016315311E+04   -0.28635E+00   -0.28460E+00  1536   0.236E+01 0.209E+00
CGA:  34    -0.130042862089E+04   -0.26547E+00   -0.26116E+00  1536   0.164E+01 0.180E+00
CGA:  35    -0.130061837388E+04   -0.18975E+00   -0.18802E+00  1536   0.100E+01 0.588E-01
CGA:  36    -0.130074923714E+04   -0.13086E+00   -0.12907E+00  1536   0.880E+00 0.367E-01
CGA:  37    -0.130086529648E+04   -0.11606E+00   -0.11842E+00  1536   0.100E+01-0.521E-01
CGA:  38    -0.130097607453E+04   -0.11078E+00   -0.11125E+00  1536   0.575E+00-0.136E-01
CGA:  39    -0.130102582220E+04   -0.49748E-01   -0.49636E-01  1536   0.416E+00-0.609E-02
CGA:  40    -0.130108355295E+04   -0.57731E-01   -0.58661E-01  1536   0.567E+00-0.161E-01
CGA:  41    -0.130114247493E+04   -0.58922E-01   -0.59202E-01  1536   0.309E+00-0.149E-01
CGA:  42    -0.130117322733E+04   -0.30752E-01   -0.30793E-01  1536   0.265E+00-0.504E-02
CGA:  43    -0.130120842617E+04   -0.35199E-01   -0.35624E-01  1536   0.274E+00-0.876E-02
CGA:  44    -0.130123109060E+04   -0.22664E-01   -0.22305E-01  1536   0.206E+00-0.701E-02
CGA:  45    -0.130125810694E+04   -0.27016E-01   -0.26762E-01  1536   0.299E+00 0.578E-02
CGA:  46    -0.130128805247E+04   -0.29946E-01   -0.29675E-01  1536   0.219E+00-0.281E-01
CGA:  47    -0.130130190900E+04   -0.13857E-01   -0.13133E-01  1536   0.126E+00 0.783E-03
CGA:  48    -0.130131693562E+04   -0.15027E-01   -0.15132E-01  1536   0.153E+00-0.306E-02
CGA:  49    -0.130132819130E+04   -0.11256E-01   -0.11110E-01  1536   0.157E+00 0.923E-03
CGA:  50    -0.130134242694E+04   -0.14236E-01   -0.14266E-01  1536   0.156E+00 0.312E-02
CGA:  51    -0.130135201870E+04   -0.95918E-02   -0.83396E-02  1536   0.112E+00 0.105E-01
CGA:  52    -0.130135894357E+04   -0.69249E-02   -0.68022E-02  1536   0.115E+00 0.998E-03
CGA:  53    -0.130136482733E+04   -0.58838E-02   -0.59236E-02  1536   0.106E+00 0.766E-03
CGA:  54    -0.130137076443E+04   -0.59371E-02   -0.58595E-02  1536   0.113E+00 0.970E-03
SDA:  55    -0.130137705983E+04   -0.62954E-02   -0.61287E-02  1536   0.109E+00 0.144E-02
CGA:  56    -0.130138322259E+04   -0.61628E-02   -0.61422E-02  1536   0.897E-01-0.460E-04
CGA:  57    -0.130139553297E+04   -0.12310E-01   -0.12482E-01  1536   0.263E+00-0.297E-02
CGA:  58    -0.130141601881E+04   -0.20486E-01   -0.20358E-01  1536   0.185E+00-0.549E-02
CGA:  59    -0.130142693765E+04   -0.10919E-01   -0.10712E-01  1536   0.110E+00 0.271E-04
CGA:  60    -0.130143559853E+04   -0.86609E-02   -0.86072E-02  1536   0.107E+00-0.244E-02
CGA:  61    -0.130144020656E+04   -0.46080E-02   -0.45201E-02  1536   0.371E-01 0.898E-03
CGA:  62    -0.130144163328E+04   -0.14267E-02   -0.14246E-02  1536   0.127E-01 0.803E-04
CGA:  63    -0.130144270786E+04   -0.10746E-02   -0.10745E-02  1536   0.193E-01 0.106E-03
CGA:  64    -0.130144385034E+04   -0.11425E-02   -0.11469E-02  1536   0.176E-01 0.268E-03
CGA:  65    -0.130144475479E+04   -0.90445E-03   -0.91283E-03  1536   0.693E-02 0.284E-03
CGA:  66    -0.130144518260E+04   -0.42781E-03   -0.43012E-03  1536   0.798E-02 0.171E-03
CGA:  67    -0.130144573091E+04   -0.54831E-03   -0.55145E-03  1536   0.108E-01 0.268E-03
CGA:  68    -0.130144644516E+04   -0.71425E-03   -0.71433E-03  1536   0.417E-02 0.261E-03
CGA:  69    -0.130144664732E+04   -0.20216E-03   -0.20103E-03  1536   0.408E-02 0.681E-04
CGA:  70    -0.130144690224E+04   -0.25492E-03   -0.25418E-03  1536   0.371E-02-0.824E-05
CGA:  71    -0.130144719529E+04   -0.29305E-03   -0.29365E-03  1536   0.414E-02-0.115E-03
CGA:  72    -0.130144732672E+04   -0.13144E-03   -0.12535E-03  1536   0.157E-02 0.200E-04
CGA:  73    -0.130144743248E+04   -0.10575E-03   -0.10509E-03  1536   0.230E-02-0.949E-04
CGA:  74    -0.130144755066E+04   -0.11819E-03   -0.11538E-03  1536   0.215E-02-0.129E-03
CGA:  75    -0.130144763144E+04   -0.80773E-04   -0.76832E-04  1536   0.103E-02-0.783E-04
CGA:  76    -0.130144767441E+04   -0.42969E-04   -0.41537E-04  1536   0.851E-03-0.455E-04
CGA:  77    -0.130144771565E+04   -0.41247E-04   -0.40568E-04  1536   0.104E-02-0.370E-04
CGA:  78    -0.130144778604E+04   -0.70387E-04   -0.70612E-04  1536   0.164E-02-0.578E-04
CGA:  79    -0.130144783766E+04   -0.51624E-04   -0.48317E-04  1536   0.850E-03 0.287E-04
CGA:  80    -0.130144786476E+04   -0.27096E-04   -0.26847E-04  1536   0.567E-03 0.376E-05
CGA:  81    -0.130144788607E+04   -0.21312E-04   -0.21722E-04  1536   0.626E-03 0.121E-04
CGA:  82    -0.130144791602E+04   -0.29953E-04   -0.30555E-04  1536   0.753E-03 0.335E-04
CGA:  83    -0.130144794325E+04   -0.27226E-04   -0.28191E-04  1536   0.565E-03 0.374E-04
CGA:  84    -0.130144796530E+04   -0.22046E-04   -0.22840E-04  1536   0.408E-03 0.356E-04
CGA:  85    -0.130144797907E+04   -0.13774E-04   -0.14471E-04  1536   0.328E-03 0.245E-04
SDA:  86    -0.130144800052E+04   -0.21455E-04   -0.21338E-04  1536   0.549E-03 0.398E-04
CGA:  87    -0.130144802171E+04   -0.21184E-04   -0.21153E-04  1536   0.317E-03-0.116E-05
CGA:  88    -0.130144804574E+04   -0.24035E-04   -0.24038E-04  1536   0.346E-03-0.842E-06
CGA:  89    -0.130144808306E+04   -0.37313E-04   -0.37124E-04  1536   0.412E-03 0.317E-05
CGA:  90    -0.130144811220E+04   -0.29144E-04   -0.29071E-04  1536   0.137E-03 0.600E-05
CGA:  91    -0.130144812016E+04   -0.79555E-05   -0.79763E-05  1536   0.102E-03 0.467E-05
CGA:  92    -0.130144813155E+04   -0.11392E-04   -0.10813E-04  1536   0.882E-04 0.135E-04
CGA:  93    -0.130144813746E+04   -0.59151E-05   -0.59486E-05  1536   0.323E-04 0.834E-05
   1 F= -.13014481E+04 E0= -.13014130E+04  d E =-.130145E+04  mag=    70.0000
       N       E                     dE             d eps       ncg     rms          ort
SDA:   1    -0.130144275661E+04    0.53749E-02    0.00000E+00  1536   0.390E-01 0.000E+00
CGA:   2    -0.130144420882E+04   -0.14522E-02   -0.14579E-02  1536   0.283E-01-0.269E-04
CGA:   3    -0.130144652868E+04   -0.23199E-02   -0.23199E-02  1536   0.115E-01 0.457E-05
CGA:   4    -0.130144725910E+04   -0.73042E-03   -0.73041E-03  1536   0.834E-02 0.429E-05
CGA:   5    -0.130144793169E+04   -0.67259E-03   -0.67258E-03  1536   0.827E-02 0.447E-06
CGA:   6    -0.130144835124E+04   -0.41955E-03   -0.41963E-03  1536   0.213E-02 0.208E-05
CGA:   7    -0.130144844048E+04   -0.89234E-04   -0.89209E-04  1536   0.987E-03 0.695E-06
CGA:   8    -0.130144850793E+04   -0.67453E-04   -0.67440E-04  1536   0.947E-03 0.183E-05
CGA:   9    -0.130144856274E+04   -0.54815E-04   -0.54819E-04  1536   0.296E-03 0.116E-05
CGA:  10    -0.130144857958E+04   -0.16837E-04   -0.16837E-04  1536   0.921E-04 0.297E-07
CGA:  11    -0.130144858642E+04   -0.68440E-05   -0.68524E-05  1536   0.142E-03-0.592E-06
   2 F= -.13014486E+04 E0= -.13014134E+04  d E =-.448962E-03  mag=    70.0000
       N       E                     dE             d eps       ncg     rms          ort
SDA:   1    -0.130143457948E+04    0.14000E-01    0.00000E+00  1536   0.138E+00 0.000E+00
CGA:   2    -0.130143883967E+04   -0.42602E-02   -0.42914E-02  1536   0.554E-01-0.476E-03
CGA:   3    -0.130144279413E+04   -0.39545E-02   -0.39554E-02  1536   0.467E-01-0.437E-04
CGA:   4    -0.130144567663E+04   -0.28825E-02   -0.28825E-02  1536   0.194E-01 0.246E-04
CGA:   5    -0.130144708358E+04   -0.14070E-02   -0.14070E-02  1536   0.176E-01-0.401E-05
CGA:   6    -0.130144836145E+04   -0.12779E-02   -0.12779E-02  1536   0.103E-01-0.381E-05
CGA:   7    -0.130144879324E+04   -0.43179E-03   -0.43170E-03  1536   0.226E-02-0.109E-05
CGA:   8    -0.130144891091E+04   -0.11767E-03   -0.11773E-03  1536   0.176E-02 0.441E-05
CGA:   9    -0.130144902227E+04   -0.11135E-03   -0.11134E-03  1536   0.127E-02 0.446E-05
CGA:  10    -0.130144909864E+04   -0.76377E-04   -0.76380E-04  1536   0.359E-03 0.447E-05
CGA:  11    -0.130144911815E+04   -0.19506E-04   -0.19512E-04  1536   0.182E-03 0.976E-06
CGA:  12    -0.130144913436E+04   -0.16206E-04   -0.16194E-04  1536   0.227E-03 0.425E-06
CGA:  13    -0.130144914740E+04   -0.13047E-04   -0.13048E-04  1536   0.144E-03 0.173E-06
CGA:  14    -0.130144915406E+04   -0.66586E-05   -0.66641E-05  1536   0.562E-04 0.350E-06
   3 F= -.13014492E+04 E0= -.13014139E+04  d E =-.567638E-03  mag=    70.0000
