       N       E                     dE             d eps       ncg     rms          ort
DAV:   1     0.140233193357E+05    0.14023E+05   -0.41097E+05  2016   0.175E+03
DAV:   2     0.190733045766E+04   -0.12116E+05   -0.11847E+05  2016   0.567E+02
DAV:   3    -0.756322677054E+03   -0.26637E+04   -0.25387E+04  2016   0.252E+02
DAV:   4    -0.109650998658E+04   -0.34019E+03   -0.33558E+03  2016   0.118E+02
DAV:   5    -0.111322382365E+04   -0.16714E+02   -0.16208E+02  2016   0.322E+01
SDA:   6    -0.226947652365E+03    0.88628E+03   -0.16208E+02  2016   0.463E+04 0.000E+00
CGA:   7    -0.650963693623E+03   -0.42402E+03   -0.48757E+03  2016   0.391E+04-0.234E+03
CGA:   8    -0.643868712218E+03    0.70950E+01   -0.19163E+03  2016   0.434E+04-0.207E+04
CGA:   9    -0.571787546982E+03    0.72081E+02   -0.34886E+03  2016   0.151E+04-0.659E+03
CGA:  10    -0.645804178311E+03   -0.74017E+02   -0.84827E+02  2016   0.178E+04-0.160E+04
CGA:  11    -0.611454047370E+03    0.34350E+02   -0.10295E+03  2016   0.150E+04-0.767E+03
CGA:  12    -0.747186843704E+03   -0.13573E+03   -0.56018E+02  2016   0.584E+03-0.318E+03
CGA:  13    -0.814728874857E+03   -0.67542E+02   -0.13829E+02  2016   0.733E+03-0.417E+02
CGA:  14    -0.837953725674E+03   -0.23225E+02   -0.22131E+02  2016   0.205E+03-0.250E+03
CGA:  15    -0.845413038077E+03   -0.74593E+01   -0.51585E+01  2016   0.144E+03 0.419E+02
CGA:  16    -0.841190129379E+03    0.42229E+01   -0.77315E+01  2016   0.330E+03-0.108E+03
CGA:  17    -0.851943362860E+03   -0.10753E+02   -0.77678E+01  2016   0.124E+03-0.520E+02
CGA:  18    -0.852495982352E+03   -0.55262E+00   -0.51643E+01  2016   0.773E+02-0.300E+02
CGA:  19    -0.854653434360E+03   -0.21575E+01   -0.12053E+01  2016   0.722E+02 0.518E+02
CGA:  20    -0.857159767688E+03   -0.25063E+01   -0.24974E+01  2016   0.591E+02-0.532E+02
CGA:  21    -0.857358959539E+03   -0.19919E+00   -0.24912E+01  2016   0.746E+02-0.365E+02
CGA:  22    -0.858746603077E+03   -0.13876E+01   -0.21855E+01  2016   0.538E+02-0.538E+02
CGA:  23    -0.859007198465E+03   -0.26060E+00   -0.18954E+01  2016   0.697E+02-0.375E+02
CGA:  24    -0.860176377045E+03   -0.11692E+01   -0.15138E+01  2016   0.282E+02-0.268E+02
CGA:  25    -0.861076491482E+03   -0.90011E+00   -0.10942E+01  2016   0.483E+02-0.101E+01
CGA:  26    -0.863447609448E+03   -0.23711E+01   -0.23560E+01  2016   0.388E+02-0.398E+01
CGA:  27    -0.865872062603E+03   -0.24245E+01   -0.27598E+01  2016   0.169E+02 0.433E+01
CGA:  28    -0.866622224797E+03   -0.75016E+00   -0.73668E+00  2016   0.527E+01 0.578E+00
CGA:  29    -0.866898806687E+03   -0.27658E+00   -0.30481E+00  2016   0.818E+01-0.159E+00
CGA:  30    -0.867505264240E+03   -0.60646E+00   -0.60957E+00  2016   0.111E+02 0.210E-01
CGA:  31    -0.868137264211E+03   -0.63200E+00   -0.69754E+00  2016   0.215E+01 0.532E+00
CGA:  32    -0.868281683348E+03   -0.14442E+00   -0.15245E+00  2016   0.159E+01 0.546E-01
CGA:  33    -0.868482324292E+03   -0.20064E+00   -0.21400E+00  2016   0.316E+01-0.281E+00
CGA:  34    -0.868690465129E+03   -0.20814E+00   -0.20861E+00  2016   0.204E+01 0.266E-01
CGA:  35    -0.868770659583E+03   -0.80194E-01   -0.86125E-01  2016   0.895E+00-0.547E-01
CGA:  36    -0.868883567427E+03   -0.11291E+00   -0.11372E+00  2016   0.817E+00-0.205E-01
CGA:  37    -0.868951021369E+03   -0.67454E-01   -0.67313E-01  2016   0.486E+00-0.937E-02
CGA:  38    -0.868986732983E+03   -0.35712E-01   -0.36281E-01  2016   0.507E+00 0.106E-01
CGA:  39    -0.869049968542E+03   -0.63236E-01   -0.63705E-01  2016   0.468E+00-0.122E-01
CGA:  40    -0.869082698939E+03   -0.32730E-01   -0.33007E-01  2016   0.201E+00 0.275E-02
CGA:  41    -0.869102870320E+03   -0.20171E-01   -0.20200E-01  2016   0.218E+00-0.213E-02
CGA:  42    -0.869131972162E+03   -0.29102E-01   -0.29359E-01  2016   0.121E+00-0.472E-02
CGA:  43    -0.869142231133E+03   -0.10259E-01   -0.10250E-01  2016   0.920E-01-0.518E-03
CGA:  44    -0.869156228090E+03   -0.13997E-01   -0.13950E-01  2016   0.105E+00 0.733E-03
CGA:  45    -0.869163240411E+03   -0.70123E-02   -0.69642E-02  2016   0.446E-01 0.309E-03
CGA:  46    -0.869167695620E+03   -0.44552E-02   -0.44540E-02  2016   0.506E-01 0.227E-03
CGA:  47    -0.869173015981E+03   -0.53204E-02   -0.53603E-02  2016   0.497E-01-0.220E-02
CGA:  48    -0.869176411983E+03   -0.33960E-02   -0.34708E-02  2016   0.183E-01 0.897E-03
CGA:  49    -0.869178573540E+03   -0.21616E-02   -0.22151E-02  2016   0.268E-01-0.154E-02
CGA:  50    -0.869180848796E+03   -0.22753E-02   -0.22787E-02  2016   0.167E-01 0.662E-03
CGA:  51    -0.869182035273E+03   -0.11865E-02   -0.11883E-02  2016   0.910E-02 0.803E-04
CGA:  52    -0.869182840874E+03   -0.80560E-03   -0.80414E-03  2016   0.120E-01-0.714E-04
CGA:  53    -0.869183964219E+03   -0.11233E-02   -0.11233E-02  2016   0.105E-01 0.322E-04
SDA:  54    -0.869184716869E+03   -0.75265E-03   -0.75046E-03  2016   0.463E-02 0.226E-04
CGA:  55    -0.869185231629E+03   -0.51476E-03   -0.51569E-03  2016   0.721E-02-0.350E-04
CGA:  56    -0.869186130814E+03   -0.89919E-03   -0.89529E-03  2016   0.875E-02 0.884E-04
CGA:  57    -0.869186661161E+03   -0.53035E-03   -0.52607E-03  2016   0.398E-02-0.223E-05
CGA:  58    -0.869187013574E+03   -0.35241E-03   -0.35215E-03  2016   0.503E-02-0.378E-04
CGA:  59    -0.869187554351E+03   -0.54078E-03   -0.53978E-03  2016   0.227E-02 0.228E-04
CGA:  60    -0.869187666647E+03   -0.11230E-03   -0.11079E-03  2016   0.886E-03-0.353E-05
CGA:  61    -0.869187761510E+03   -0.94863E-04   -0.95025E-04  2016   0.862E-03-0.115E-04
CGA:  62    -0.869187826783E+03   -0.65274E-04   -0.65121E-04  2016   0.574E-03-0.886E-05
CGA:  63    -0.869187864160E+03   -0.37377E-04   -0.37262E-04  2016   0.288E-03-0.385E-05
CGA:  64    -0.869187893973E+03   -0.29813E-04   -0.29830E-04  2016   0.477E-03-0.225E-05
CGA:  65    -0.869187933303E+03   -0.39330E-04   -0.39312E-04  2016   0.306E-03-0.186E-05
CGA:  66    -0.869187965425E+03   -0.32121E-04   -0.32117E-04  2016   0.301E-03 0.442E-06
CGA:  67    -0.869188007302E+03   -0.41878E-04   -0.41623E-04  2016   0.425E-03 0.484E-05
CGA:  68    -0.869188031237E+03   -0.23934E-04   -0.23952E-04  2016   0.193E-03 0.551E-05
CGA:  69    -0.869188046920E+03   -0.15684E-04   -0.15741E-04  2016   0.181E-03 0.482E-05
CGA:  70    -0.869188067012E+03   -0.20091E-04   -0.19944E-04  2016   0.176E-03 0.845E-05
CGA:  71    -0.869188077409E+03   -0.10398E-04   -0.10554E-04  2016   0.745E-04 0.445E-05
CGA:  72    -0.869188085228E+03   -0.78186E-05   -0.77737E-05  2016   0.951E-04 0.331E-05
   1 F= -.86918809E+03 E0= -.86916757E+03  d E =-.869188E+03  mag=    14.0000
       N       E                     dE             d eps       ncg     rms          ort
SDA:   1    -0.869184021328E+03    0.40561E-02    0.00000E+00  2016   0.623E-01 0.000E+00
CGA:   2    -0.869186006319E+03   -0.19850E-02   -0.20136E-02  2016   0.137E-01-0.640E-03
CGA:   3    -0.869186822073E+03   -0.81575E-03   -0.81598E-03  2016   0.759E-02-0.164E-05
CGA:   4    -0.869187454172E+03   -0.63210E-03   -0.63207E-03  2016   0.508E-02-0.750E-05
CGA:   5    -0.869187869198E+03   -0.41503E-03   -0.41503E-03  2016   0.271E-02-0.131E-05
CGA:   6    -0.869188072645E+03   -0.20345E-03   -0.20338E-03  2016   0.187E-02-0.382E-05
CGA:   7    -0.869188180840E+03   -0.10820E-03   -0.10816E-03  2016   0.909E-03-0.181E-05
CGA:   8    -0.869188234301E+03   -0.53461E-04   -0.53448E-04  2016   0.341E-03-0.471E-06
CGA:   9    -0.869188255398E+03   -0.21097E-04   -0.21079E-04  2016   0.159E-03-0.677E-06
CGA:  10    -0.869188267421E+03   -0.12023E-04   -0.12025E-04  2016   0.100E-03 0.149E-06
CGA:  11    -0.869188275288E+03   -0.78662E-05   -0.78658E-05  2016   0.616E-04-0.187E-06
   2 F= -.86918828E+03 E0= -.86916782E+03  d E =-.190060E-03  mag=    14.0000
