       N       E                     dE             d eps       ncg     rms          ort
DAV:   1     0.117612445178E+05    0.11761E+05   -0.45957E+05  2208   0.168E+03
DAV:   2     0.851459956174E+03   -0.10910E+05   -0.10485E+05  2208   0.523E+02
DAV:   3    -0.843413508993E+03   -0.16949E+04   -0.16354E+04  2208   0.189E+02
DAV:   4    -0.971612323237E+03   -0.12820E+03   -0.12312E+03  2208   0.541E+01
DAV:   5    -0.980677337281E+03   -0.90650E+01   -0.87673E+01  2208   0.118E+01
SDA:   6     0.216645020219E+02    0.10023E+04   -0.87673E+01  2208   0.839E+04 0.000E+00
CGA:   7    -0.542528736818E+03   -0.56419E+03   -0.81775E+03  2208   0.778E+04-0.151E+04
CGA:   8    -0.538288246339E+03    0.42405E+01   -0.25237E+03  2208   0.105E+05-0.781E+04
CGA:   9    -0.409985883651E+03    0.12830E+03   -0.49168E+03  2208   0.878E+04-0.534E+04
CGA:  10    -0.348900245177E+03    0.61086E+02   -0.38010E+03  2208   0.905E+04-0.782E+04
CGA:  11    -0.483571521603E+03   -0.13467E+03   -0.33361E+03  2208   0.946E+04-0.111E+05
CGA:  12    -0.372499902209E+03    0.11107E+03   -0.41512E+03  2208   0.111E+05-0.911E+04
CGA:  13    -0.500356672617E+03   -0.12786E+03   -0.40967E+03  2208   0.989E+04-0.116E+05
CGA:  14    -0.476127999009E+03    0.24229E+02   -0.39945E+03  2208   0.116E+05-0.109E+05
CGA:  15    -0.553071393012E+03   -0.76943E+02   -0.42298E+03  2208   0.827E+04-0.931E+04
CGA:  16    -0.598908213775E+03   -0.45837E+02   -0.29513E+03  2208   0.744E+04-0.817E+04
CGA:  17    -0.680890515790E+03   -0.81982E+02   -0.21429E+03  2208   0.335E+04-0.441E+04
CGA:  18    -0.760663804041E+03   -0.79773E+02   -0.81123E+02  2208   0.227E+04-0.447E+04
CGA:  19    -0.727147616104E+03    0.33516E+02   -0.79631E+02  2208   0.314E+04-0.205E+04
CGA:  20    -0.706733004455E+03    0.20415E+02   -0.89550E+02  2208   0.602E+04-0.510E+04
CGA:  21    -0.684328370053E+03    0.22405E+02   -0.18777E+03  2208   0.356E+04-0.306E+04
CGA:  22    -0.762478660560E+03   -0.78150E+02   -0.82236E+02  2208   0.268E+04-0.510E+04
CGA:  23    -0.732049148458E+03    0.30430E+02   -0.85699E+02  2208   0.325E+04-0.229E+04
CGA:  24    -0.718850023426E+03    0.13199E+02   -0.86740E+02  2208   0.570E+04-0.512E+04
CGA:  25    -0.680905619092E+03    0.37944E+02   -0.18466E+03  2208   0.360E+04-0.284E+04
CGA:  26    -0.775839910376E+03   -0.94934E+02   -0.28790E+02  2208   0.218E+04 0.402E+04
CGA:  27    -0.731048999852E+03    0.44791E+02   -0.54861E+02  2208   0.545E+04-0.302E+04
CGA:  28    -0.654384781350E+03    0.76664E+02   -0.16431E+03  2208   0.384E+04-0.246E+04
CGA:  29    -0.782032250173E+03   -0.12765E+03   -0.28609E+02  2208   0.230E+04 0.596E+04
CGA:  30    -0.727289923663E+03    0.54742E+02   -0.56795E+02  2208   0.555E+04-0.260E+04
CGA:  31    -0.634183932135E+03    0.93106E+02   -0.15041E+03  2208   0.395E+04-0.239E+04
CGA:  32    -0.787090341527E+03   -0.15291E+03   -0.27164E+02  2208   0.181E+04 0.602E+04
CGA:  33    -0.749527595767E+03    0.37563E+02   -0.39658E+02  2208   0.473E+04-0.221E+04
CGA:  34    -0.636111976667E+03    0.11342E+03   -0.11762E+03  2208   0.508E+04-0.237E+04
CGA:  35    -0.699440381243E+03   -0.63328E+02   -0.85288E+02  2208   0.543E+04-0.594E+04
CGA:  36    -0.634402585049E+03    0.65038E+02   -0.12015E+03  2208   0.436E+04-0.320E+04
CGA:  37    -0.729119163724E+03   -0.94717E+02   -0.68036E+02  2208   0.445E+04-0.687E+04
CGA:  38    -0.656229151130E+03    0.72890E+02   -0.91078E+02  2208   0.528E+04-0.371E+04
CGA:  39    -0.691934167212E+03   -0.35705E+02   -0.90509E+02  2208   0.509E+04-0.558E+04
CGA:  40    -0.666584005759E+03    0.25350E+02   -0.99154E+02  2208   0.524E+04-0.461E+04
CGA:  41    -0.707521143407E+03   -0.40937E+02   -0.85763E+02  2208   0.489E+04-0.591E+04
CGA:  42    -0.676459365136E+03    0.31062E+02   -0.90989E+02  2208   0.621E+04-0.537E+04
CGA:  43    -0.702476467612E+03   -0.26017E+02   -0.10238E+03  2208   0.496E+04-0.554E+04
CGA:  44    -0.687494706463E+03    0.14982E+02   -0.88077E+02  2208   0.709E+04-0.658E+04
CGA:  45    -0.696753624356E+03   -0.92589E+01   -0.12101E+03  2208   0.496E+04-0.513E+04
CGA:  46    -0.702210551605E+03   -0.54569E+01   -0.83925E+02  2208   0.804E+04-0.825E+04
CGA:  47    -0.696843098316E+03    0.53675E+01   -0.13927E+03  2208   0.499E+04-0.486E+04
CGA:  48    -0.714390074204E+03   -0.17547E+02   -0.80838E+02  2208   0.850E+04-0.929E+04
CGA:  49    -0.703949870462E+03    0.10440E+02   -0.14395E+03  2208   0.509E+04-0.484E+04
CGA:  50    -0.726642001875E+03   -0.22692E+02   -0.78179E+02  2208   0.854E+04-0.971E+04
CGA:  51    -0.715573208300E+03    0.11069E+02   -0.13847E+03  2208   0.524E+04-0.493E+04
CGA:  52    -0.741550357250E+03   -0.25977E+02   -0.75060E+02  2208   0.793E+04-0.944E+04
CGA:  53    -0.733551188068E+03    0.79992E+01   -0.12009E+03  2208   0.525E+04-0.498E+04
CGA:  54    -0.757710233526E+03   -0.24159E+02   -0.69543E+02  2208   0.659E+04-0.812E+04
CGA:  55    -0.755825780616E+03    0.18845E+01   -0.91190E+02  2208   0.464E+04-0.457E+04
CGA:  56    -0.778397989256E+03   -0.22572E+02   -0.55111E+02  2208   0.402E+04-0.551E+04
CGA:  57    -0.785299512603E+03   -0.69015E+01   -0.47239E+02  2208   0.243E+04-0.284E+04
CGA:  58    -0.801372848711E+03   -0.16073E+02   -0.21587E+02  2208   0.426E+03-0.114E+04
CGA:  59    -0.804001358936E+03   -0.26285E+01   -0.27112E+01  2208   0.486E+01-0.625E+01
CGA:  60    -0.804117082463E+03   -0.11572E+00   -0.11577E+00  2208   0.114E+02 0.214E-02
CGA:  61    -0.805251628364E+03   -0.11345E+01   -0.11526E+01  2208   0.490E+02-0.663E+00
CGA:  62    -0.805878299247E+03   -0.62667E+00   -0.53129E+00  2208   0.255E+02 0.642E+01
CGA:  63    -0.806271724511E+03   -0.39343E+00   -0.39181E+00  2208   0.179E+02 0.788E-01
CGA:  64    -0.806457672393E+03   -0.18595E+00   -0.18194E+00  2208   0.588E+01 0.338E+00
CGA:  65    -0.806527567463E+03   -0.69895E-01   -0.69357E-01  2208   0.466E+01 0.320E-01
CGA:  66    -0.806591578727E+03   -0.64011E-01   -0.64264E-01  2208   0.316E+01-0.120E-01
CGA:  67    -0.806644718835E+03   -0.53140E-01   -0.54075E-01  2208   0.531E+01-0.140E-01
CGA:  68    -0.806748895856E+03   -0.10418E+00   -0.10524E+00  2208   0.511E+01 0.104E-01
CGA:  69    -0.806841666388E+03   -0.92771E-01   -0.93063E-01  2208   0.763E+01-0.270E-02
CGA:  70    -0.806963764956E+03   -0.12210E+00   -0.12499E+00  2208   0.373E+01-0.319E-01
CGA:  71    -0.807006065077E+03   -0.42300E-01   -0.43482E-01  2208   0.245E+01-0.587E-01
CGA:  72    -0.807048345828E+03   -0.42281E-01   -0.42617E-01  2208   0.152E+01 0.986E-03
CGA:  73    -0.807074835184E+03   -0.26489E-01   -0.26615E-01  2208   0.191E+01 0.251E-04
CGA:  74    -0.807119690024E+03   -0.44855E-01   -0.44997E-01  2208   0.189E+01 0.410E-01
CGA:  75    -0.807159576305E+03   -0.39886E-01   -0.40119E-01  2208   0.199E+01 0.157E-01
CGA:  76    -0.807194541926E+03   -0.34966E-01   -0.35276E-01  2208   0.988E+00 0.236E-02
CGA:  77    -0.807211188350E+03   -0.16646E-01   -0.16800E-01  2208   0.701E+00 0.237E-03
CGA:  78    -0.807230045086E+03   -0.18857E-01   -0.18829E-01  2208   0.766E+00 0.497E-02
CGA:  79    -0.807247041848E+03   -0.16997E-01   -0.17002E-01  2208   0.913E+00-0.489E-03
CGA:  80    -0.807272753692E+03   -0.25712E-01   -0.25600E-01  2208   0.789E+00 0.165E-01
CGA:  81    -0.807294072255E+03   -0.21319E-01   -0.21282E-01  2208   0.805E+00 0.822E-02
CGA:  82    -0.807306418594E+03   -0.12346E-01   -0.12400E-01  2208   0.295E+00-0.283E-02
CGA:  83    -0.807313623573E+03   -0.72050E-02   -0.72042E-02  2208   0.150E+00 0.992E-04
CGA:  84    -0.807318201543E+03   -0.45780E-02   -0.45751E-02  2208   0.318E+00 0.820E-04
CGA:  85    -0.807328118114E+03   -0.99166E-02   -0.99098E-02  2208   0.236E+00 0.241E-03
CGA:  86    -0.807336393464E+03   -0.82754E-02   -0.82738E-02  2208   0.246E+00-0.147E-03
CGA:  87    -0.807340553464E+03   -0.41600E-02   -0.41726E-02  2208   0.115E+00-0.624E-03
SDA:  88    -0.807343121251E+03   -0.25678E-02   -0.25681E-02  2208   0.669E-01-0.192E-03
CGA:  89    -0.807344192611E+03   -0.10714E-02   -0.10716E-02  2208   0.363E-01 0.949E-05
CGA:  90    -0.807345845759E+03   -0.16531E-02   -0.16499E-02  2208   0.532E-01 0.145E-03
CGA:  91    -0.807347468446E+03   -0.16227E-02   -0.16223E-02  2208   0.781E-01 0.711E-04
CGA:  92    -0.807349844997E+03   -0.23766E-02   -0.23759E-02  2208   0.429E-01 0.144E-03
CGA:  93    -0.807351084192E+03   -0.12392E-02   -0.12386E-02  2208   0.242E-01 0.179E-03
CGA:  94    -0.807352464116E+03   -0.13799E-02   -0.13669E-02  2208   0.344E-01 0.429E-03
CGA:  95    -0.807355040191E+03   -0.25761E-02   -0.25436E-02  2208   0.460E-01 0.712E-03
CGA:  96    -0.807356037664E+03   -0.99747E-03   -0.99950E-03  2208   0.289E-01 0.256E-03
CGA:  97    -0.807356559885E+03   -0.52222E-03   -0.52353E-03  2208   0.115E-01 0.113E-03
CGA:  98    -0.807357012239E+03   -0.45235E-03   -0.45175E-03  2208   0.129E-01 0.528E-04
CGA:  99    -0.807357604258E+03   -0.59202E-03   -0.59209E-03  2208   0.261E-01-0.425E-05
CGA: 100    -0.807358397715E+03   -0.79346E-03   -0.79347E-03  2208   0.885E-02-0.507E-04
CGA: 101    -0.807358744122E+03   -0.34641E-03   -0.34683E-03  2208   0.437E-02-0.519E-04
CGA: 102    -0.807358968527E+03   -0.22440E-03   -0.22582E-03  2208   0.938E-02-0.684E-04
CGA: 103    -0.807359228000E+03   -0.25947E-03   -0.25918E-03  2208   0.120E-01-0.949E-04
CGA: 104    -0.807359572358E+03   -0.34436E-03   -0.34400E-03  2208   0.534E-02-0.141E-03
CGA: 105    -0.807359741758E+03   -0.16940E-03   -0.16945E-03  2208   0.286E-02-0.660E-04
CGA: 106    -0.807359879502E+03   -0.13774E-03   -0.13853E-03  2208   0.405E-02-0.471E-04
CGA: 107    -0.807360077201E+03   -0.19770E-03   -0.19856E-03  2208   0.774E-02-0.510E-04
CGA: 108    -0.807360273147E+03   -0.19595E-03   -0.19566E-03  2208   0.269E-02-0.409E-04
CGA: 109    -0.807360342081E+03   -0.68934E-04   -0.68982E-04  2208   0.164E-02 0.242E-05
CGA: 110    -0.807360382216E+03   -0.40135E-04   -0.40312E-04  2208   0.197E-02 0.200E-04
CGA: 111    -0.807360462863E+03   -0.80647E-04   -0.80058E-04  2208   0.224E-02 0.698E-04
CGA: 112    -0.807360605980E+03   -0.14312E-03   -0.13909E-03  2208   0.125E-02 0.145E-03
CGA: 113    -0.807360661166E+03   -0.55186E-04   -0.54783E-04  2208   0.672E-03 0.530E-04
CGA: 114    -0.807360684492E+03   -0.23326E-04   -0.23341E-04  2208   0.867E-03 0.166E-04
CGA: 115    -0.807360709971E+03   -0.25479E-04   -0.25557E-04  2208   0.130E-02 0.132E-04
CGA: 116    -0.807360778621E+03   -0.68650E-04   -0.68105E-04  2208   0.116E-02 0.296E-04
CGA: 117    -0.807360810148E+03   -0.31528E-04   -0.31609E-04  2208   0.364E-03 0.824E-05
CGA: 118    -0.807360825464E+03   -0.15316E-04   -0.15318E-04  2208   0.391E-03-0.137E-05
SDA: 119    -0.807360836790E+03   -0.11326E-04   -0.11304E-04  2208   0.457E-03-0.499E-05
CGA: 120    -0.807360844596E+03   -0.78058E-05   -0.77759E-05  2208   0.211E-03-0.270E-05
   1 F= -.80736084E+03 E0= -.80727654E+03  d E =-.807361E+03  mag=    66.0000
       N       E                     dE             d eps       ncg     rms          ort
SDA:   1    -0.807355224251E+03    0.56125E-02    0.00000E+00  2208   0.951E+00 0.000E+00
CGA:   2    -0.807366752551E+03   -0.11528E-01   -0.11510E-01  2208   0.962E-01 0.917E-03
CGA:   3    -0.807368347659E+03   -0.15951E-02   -0.15970E-02  2208   0.222E-01-0.629E-04
CGA:   4    -0.807368838913E+03   -0.49125E-03   -0.49101E-03  2208   0.188E-01-0.147E-04
CGA:   5    -0.807369448712E+03   -0.60980E-03   -0.60984E-03  2208   0.226E-01-0.353E-04
CGA:   6    -0.807370494979E+03   -0.10463E-02   -0.10472E-02  2208   0.178E-01-0.635E-04
CGA:   7    -0.807371016202E+03   -0.52122E-03   -0.52112E-03  2208   0.420E-02-0.357E-04
CGA:   8    -0.807371224865E+03   -0.20866E-03   -0.20911E-03  2208   0.332E-02-0.254E-04
CGA:   9    -0.807371444185E+03   -0.21932E-03   -0.22038E-03  2208   0.403E-02-0.317E-04
CGA:  10    -0.807371586121E+03   -0.14194E-03   -0.14196E-03  2208   0.246E-02-0.247E-04
CGA:  11    -0.807371623197E+03   -0.37076E-04   -0.36905E-04  2208   0.100E-02-0.904E-05
CGA:  12    -0.807371649191E+03   -0.25994E-04   -0.25928E-04  2208   0.437E-03-0.895E-05
CGA:  13    -0.807371674794E+03   -0.25603E-04   -0.26022E-04  2208   0.931E-03-0.158E-04
CGA:  14    -0.807371700410E+03   -0.25616E-04   -0.25518E-04  2208   0.790E-03-0.158E-04
CGA:  15    -0.807371731087E+03   -0.30677E-04   -0.30771E-04  2208   0.385E-03-0.181E-04
CGA:  16    -0.807371743560E+03   -0.12473E-04   -0.12465E-04  2208   0.291E-03-0.523E-05
CGA:  17    -0.807371749554E+03   -0.59938E-05   -0.59708E-05  2208   0.298E-03-0.176E-05
CGA:  18    -0.807371768164E+03   -0.18611E-04   -0.18697E-04  2208   0.490E-03-0.307E-05
CGA:  19    -0.807371786227E+03   -0.18063E-04   -0.18069E-04  2208   0.295E-03-0.364E-05
CGA:  20    -0.807371793963E+03   -0.77359E-05   -0.77119E-05  2208   0.185E-03-0.269E-05
   2 F= -.80737179E+03 E0= -.80728743E+03  d E =-.109494E-01  mag=    66.0000
       N       E                     dE             d eps       ncg     rms          ort
SDA:   1    -0.779850151965E+03    0.27522E+02    0.00000E+00  2208   0.129E+03 0.000E+00
CGA:   2    -0.783103263064E+03   -0.32531E+01   -0.32024E+01  2208   0.200E+03-0.110E+01
CGA:   3    -0.793431929279E+03   -0.10329E+02   -0.10415E+02  2208   0.226E+03-0.376E+01
CGA:   4    -0.799904676228E+03   -0.64727E+01   -0.63544E+01  2208   0.667E+02-0.544E+01
CGA:   5    -0.801809064742E+03   -0.19044E+01   -0.18871E+01  2208   0.684E+02-0.919E+00
CGA:   6    -0.803419579576E+03   -0.16105E+01   -0.15196E+01  2208   0.462E+02 0.479E+00
CGA:   7    -0.805360207715E+03   -0.19406E+01   -0.19524E+01  2208   0.662E+02-0.986E+00
CGA:   8    -0.806492150243E+03   -0.11319E+01   -0.11367E+01  2208   0.325E+02 0.232E-01
CGA:   9    -0.807111117469E+03   -0.61897E+00   -0.63191E+00  2208   0.119E+02-0.270E+00
CGA:  10    -0.807405895875E+03   -0.29478E+00   -0.29614E+00  2208   0.467E+01 0.349E-01
CGA:  11    -0.807505204326E+03   -0.99308E-01   -0.99340E-01  2208   0.568E+01-0.149E-03
CGA:  12    -0.807721887045E+03   -0.21668E+00   -0.21584E+00  2208   0.620E+01 0.900E-01
CGA:  13    -0.807898518324E+03   -0.17663E+00   -0.17690E+00  2208   0.354E+01 0.249E-01
CGA:  14    -0.807951788667E+03   -0.53270E-01   -0.54276E-01  2208   0.100E+01-0.353E-01
CGA:  15    -0.807978147569E+03   -0.26359E-01   -0.26352E-01  2208   0.532E+00-0.407E-03
CGA:  16    -0.807997766794E+03   -0.19619E-01   -0.19604E-01  2208   0.983E+00 0.176E-02
CGA:  17    -0.808023918406E+03   -0.26152E-01   -0.26364E-01  2208   0.842E+00 0.168E-01
CGA:  18    -0.808052129691E+03   -0.28211E-01   -0.28195E-01  2208   0.344E+00 0.472E-02
CGA:  19    -0.808060632410E+03   -0.85027E-02   -0.85141E-02  2208   0.119E+00 0.500E-03
CGA:  20    -0.808064387876E+03   -0.37555E-02   -0.37553E-02  2208   0.166E+00 0.104E-03
CGA:  21    -0.808069035356E+03   -0.46475E-02   -0.46510E-02  2208   0.147E+00 0.439E-03
CGA:  22    -0.808076455529E+03   -0.74202E-02   -0.74010E-02  2208   0.199E+00 0.689E-03
CGA:  23    -0.808080860765E+03   -0.44052E-02   -0.44224E-02  2208   0.103E+00 0.665E-04
CGA:  24    -0.808082996611E+03   -0.21358E-02   -0.21371E-02  2208   0.339E-01-0.328E-04
CGA:  25    -0.808084677263E+03   -0.16807E-02   -0.16763E-02  2208   0.443E-01 0.203E-03
CGA:  26    -0.808086159385E+03   -0.14821E-02   -0.14817E-02  2208   0.633E-01 0.182E-03
CGA:  27    -0.808087902528E+03   -0.17431E-02   -0.17450E-02  2208   0.465E-01 0.298E-03
CGA:  28    -0.808089186565E+03   -0.12840E-02   -0.12854E-02  2208   0.137E-01 0.250E-03
CGA:  29    -0.808089731960E+03   -0.54540E-03   -0.54435E-03  2208   0.116E-01 0.114E-03
CGA:  30    -0.808090172254E+03   -0.44029E-03   -0.43979E-03  2208   0.257E-01 0.764E-04
CGA:  31    -0.808091108125E+03   -0.93587E-03   -0.93506E-03  2208   0.181E-01 0.158E-03
SDA:  32    -0.808091660836E+03   -0.55271E-03   -0.55276E-03  2208   0.705E-02 0.211E-04
CGA:  33    -0.808091809851E+03   -0.14902E-03   -0.14867E-03  2208   0.436E-02-0.391E-04
CGA:  34    -0.808091942019E+03   -0.13217E-03   -0.13210E-03  2208   0.647E-02-0.752E-04
CGA:  35    -0.808092239526E+03   -0.29751E-03   -0.30086E-03  2208   0.784E-02-0.215E-03
CGA:  36    -0.808092506362E+03   -0.26684E-03   -0.26735E-03  2208   0.743E-02-0.172E-03
CGA:  37    -0.808092660637E+03   -0.15428E-03   -0.15360E-03  2208   0.357E-02-0.636E-04
CGA:  38    -0.808092797379E+03   -0.13674E-03   -0.13659E-03  2208   0.231E-02 0.197E-04
CGA:  39    -0.808093027700E+03   -0.23032E-03   -0.21845E-03  2208   0.455E-02 0.188E-03
CGA:  40    -0.808093231636E+03   -0.20394E-03   -0.20302E-03  2208   0.203E-02 0.152E-03
CGA:  41    -0.808093298135E+03   -0.66499E-04   -0.66571E-04  2208   0.279E-02 0.169E-04
CGA:  42    -0.808093373244E+03   -0.75109E-04   -0.75042E-04  2208   0.246E-02-0.946E-05
CGA:  43    -0.808093507373E+03   -0.13413E-03   -0.13569E-03  2208   0.383E-02-0.783E-04
CGA:  44    -0.808093600409E+03   -0.93036E-04   -0.92349E-04  2208   0.269E-02-0.642E-04
CGA:  45    -0.808093660635E+03   -0.60226E-04   -0.59693E-04  2208   0.676E-03-0.448E-04
CGA:  46    -0.808093695728E+03   -0.35093E-04   -0.35422E-04  2208   0.804E-03-0.194E-04
CGA:  47    -0.808093744861E+03   -0.49133E-04   -0.49362E-04  2208   0.231E-02-0.101E-04
CGA:  48    -0.808093789499E+03   -0.44638E-04   -0.44615E-04  2208   0.902E-03-0.354E-05
CGA:  49    -0.808093815029E+03   -0.25530E-04   -0.25608E-04  2208   0.300E-03 0.850E-05
CGA:  50    -0.808093824989E+03   -0.99596E-05   -0.10003E-04  2208   0.329E-03 0.140E-04
   3 F= -.80809382E+03 E0= -.80800900E+03  d E =-.722031E+00  mag=    66.0000
       N       E                     dE             d eps       ncg     rms          ort
SDA:   1    -0.798570031190E+03    0.95238E+01    0.00000E+00  2208   0.538E+02 0.000E+00
CGA:   2    -0.799651336623E+03   -0.10813E+01   -0.10780E+01  2208   0.528E+02-0.667E-01
CGA:   3    -0.802952545980E+03   -0.33012E+01   -0.32901E+01  2208   0.808E+02 0.371E+00
CGA:   4    -0.805428719590E+03   -0.24762E+01   -0.24660E+01  2208   0.377E+02-0.570E+00
CGA:   5    -0.806116035025E+03   -0.68732E+00   -0.69067E+00  2208   0.194E+02-0.206E+00
CGA:   6    -0.806824166185E+03   -0.70813E+00   -0.70951E+00  2208   0.123E+02-0.388E+00
CGA:   7    -0.807618181372E+03   -0.79402E+00   -0.80292E+00  2208   0.139E+02-0.273E+00
CGA:   8    -0.808012473282E+03   -0.39429E+00   -0.39707E+00  2208   0.449E+01 0.955E-01
CGA:   9    -0.808098773029E+03   -0.86300E-01   -0.85509E-01  2208   0.244E+01 0.169E-01
CGA:  10    -0.808161688008E+03   -0.62915E-01   -0.63156E-01  2208   0.112E+01 0.386E-02
CGA:  11    -0.808233014811E+03   -0.71327E-01   -0.70758E-01  2208   0.189E+01 0.189E-01
CGA:  12    -0.808272392979E+03   -0.39378E-01   -0.39380E-01  2208   0.125E+01 0.790E-04
CGA:  13    -0.808305525672E+03   -0.33133E-01   -0.33305E-01  2208   0.237E+00 0.351E-02
CGA:  14    -0.808313303450E+03   -0.77778E-02   -0.77801E-02  2208   0.138E+00 0.449E-03
CGA:  15    -0.808321389672E+03   -0.80862E-02   -0.80700E-02  2208   0.299E+00 0.516E-03
CGA:  16    -0.808329341173E+03   -0.79515E-02   -0.79817E-02  2208   0.219E+00 0.629E-03
CGA:  17    -0.808335783085E+03   -0.64419E-02   -0.64461E-02  2208   0.541E-01 0.202E-03
CGA:  18    -0.808337547144E+03   -0.17641E-02   -0.17643E-02  2208   0.285E-01 0.156E-04
CGA:  19    -0.808338441054E+03   -0.89391E-03   -0.89387E-03  2208   0.527E-01-0.376E-04
CGA:  20    -0.808340910483E+03   -0.24694E-02   -0.24686E-02  2208   0.482E-01-0.685E-05
CGA:  21    -0.808342982000E+03   -0.20715E-02   -0.20705E-02  2208   0.168E-01 0.401E-04
CGA:  22    -0.808343529681E+03   -0.54768E-03   -0.54788E-03  2208   0.123E-01 0.258E-04
CGA:  23    -0.808343868097E+03   -0.33842E-03   -0.33896E-03  2208   0.137E-01 0.526E-04
CGA:  24    -0.808344560462E+03   -0.69237E-03   -0.68951E-03  2208   0.147E-01 0.185E-03
CGA:  25    -0.808345201808E+03   -0.64135E-03   -0.63995E-03  2208   0.874E-02 0.190E-03
CGA:  26    -0.808345396374E+03   -0.19457E-03   -0.19541E-03  2208   0.588E-02 0.464E-04
CGA:  27    -0.808345527756E+03   -0.13138E-03   -0.13170E-03  2208   0.289E-02 0.178E-04
CGA:  28    -0.808345825995E+03   -0.29824E-03   -0.29918E-03  2208   0.616E-02-0.156E-04
CGA:  29    -0.808346072422E+03   -0.24643E-03   -0.24650E-03  2208   0.396E-02-0.412E-04
CGA:  30    -0.808346144423E+03   -0.72001E-04   -0.71725E-04  2208   0.196E-02-0.177E-04
CGA:  31    -0.808346227163E+03   -0.82740E-04   -0.82850E-04  2208   0.152E-02-0.242E-04
SDA:  32    -0.808346310814E+03   -0.83651E-04   -0.84011E-04  2208   0.390E-02-0.226E-04
CGA:  33    -0.808346354158E+03   -0.43344E-04   -0.43366E-04  2208   0.825E-03-0.931E-08
CGA:  34    -0.808346393679E+03   -0.39521E-04   -0.39425E-04  2208   0.743E-03 0.762E-05
CGA:  35    -0.808346433403E+03   -0.39724E-04   -0.39528E-04  2208   0.166E-02 0.111E-04
CGA:  36    -0.808346495226E+03   -0.61824E-04   -0.61859E-04  2208   0.209E-02 0.189E-04
CGA:  37    -0.808346564911E+03   -0.69684E-04   -0.69781E-04  2208   0.597E-03 0.167E-04
CGA:  38    -0.808346587023E+03   -0.22113E-04   -0.22108E-04  2208   0.402E-03-0.473E-05
CGA:  39    -0.808346619622E+03   -0.32599E-04   -0.33480E-04  2208   0.131E-02-0.208E-04
CGA:  40    -0.808346646229E+03   -0.26607E-04   -0.26321E-04  2208   0.876E-03-0.160E-04
CGA:  41    -0.808346684355E+03   -0.38126E-04   -0.38191E-04  2208   0.378E-03-0.145E-04
CGA:  42    -0.808346696094E+03   -0.11739E-04   -0.11764E-04  2208   0.490E-03 0.210E-05
CGA:  43    -0.808346710077E+03   -0.13982E-04   -0.14071E-04  2208   0.437E-03 0.751E-05
CGA:  44    -0.808346734246E+03   -0.24169E-04   -0.23882E-04  2208   0.591E-03 0.183E-04
CGA:  45    -0.808346746374E+03   -0.12128E-04   -0.12264E-04  2208   0.307E-03 0.623E-05
CGA:  46    -0.808346754804E+03   -0.84302E-05   -0.84384E-05  2208   0.131E-03-0.134E-06
   4 F= -.80834675E+03 E0= -.80826517E+03  d E =-.252930E+00  mag=    66.0000
       N       E                     dE             d eps       ncg     rms          ort
SDA:   1    -0.781446960724E+03    0.26900E+02    0.00000E+00  2208   0.174E+03 0.000E+00
CGA:   2    -0.785503854292E+03   -0.40569E+01   -0.39068E+01  2208   0.139E+03 0.425E+00
CGA:   3    -0.792554816007E+03   -0.70510E+01   -0.70624E+01  2208   0.174E+03-0.950E+00
CGA:   4    -0.799759246077E+03   -0.72044E+01   -0.72296E+01  2208   0.976E+02-0.564E+01
CGA:   5    -0.802165732399E+03   -0.24065E+01   -0.22902E+01  2208   0.715E+02 0.782E+00
CGA:   6    -0.804058888421E+03   -0.18932E+01   -0.17713E+01  2208   0.343E+02 0.945E+00
CGA:   7    -0.805345312606E+03   -0.12864E+01   -0.12836E+01  2208   0.599E+02-0.128E+01
CGA:   8    -0.806654818559E+03   -0.13095E+01   -0.13413E+01  2208   0.444E+02-0.383E+00
CGA:   9    -0.807670560979E+03   -0.10157E+01   -0.10354E+01  2208   0.134E+02-0.931E-01
CGA:  10    -0.807896289456E+03   -0.22573E+00   -0.21981E+00  2208   0.742E+01 0.198E+00
CGA:  11    -0.808054545837E+03   -0.15826E+00   -0.15986E+00  2208   0.281E+01-0.161E-01
CGA:  12    -0.808160916640E+03   -0.10637E+00   -0.10641E+00  2208   0.507E+01-0.605E-02
CGA:  13    -0.808287982616E+03   -0.12707E+00   -0.12852E+00  2208   0.461E+01 0.214E-01
CGA:  14    -0.808429279065E+03   -0.14130E+00   -0.14158E+00  2208   0.156E+01 0.277E-01
CGA:  15    -0.808458482503E+03   -0.29203E-01   -0.29406E-01  2208   0.790E+00-0.428E-02
CGA:  16    -0.808474284087E+03   -0.15802E-01   -0.15849E-01  2208   0.368E+00-0.447E-03
CGA:  17    -0.808492882510E+03   -0.18598E-01   -0.18498E-01  2208   0.663E+00 0.489E-02
CGA:  18    -0.808511147539E+03   -0.18265E-01   -0.18396E-01  2208   0.631E+00 0.599E-02
CGA:  19    -0.808532457454E+03   -0.21310E-01   -0.21310E-01  2208   0.285E+00 0.226E-02
CGA:  20    -0.808538148267E+03   -0.56908E-02   -0.57151E-02  2208   0.125E+00-0.260E-03
CGA:  21    -0.808541205066E+03   -0.30568E-02   -0.30635E-02  2208   0.738E-01 0.116E-03
CGA:  22    -0.808545458243E+03   -0.42532E-02   -0.42411E-02  2208   0.131E+00 0.438E-03
CGA:  23    -0.808550976062E+03   -0.55178E-02   -0.54976E-02  2208   0.175E+00 0.168E-02
CGA:  24    -0.808554639367E+03   -0.36633E-02   -0.36723E-02  2208   0.550E-01-0.132E-03
CGA:  25    -0.808556588860E+03   -0.19495E-02   -0.19489E-02  2208   0.228E-01 0.180E-03
CGA:  26    -0.808557554077E+03   -0.96522E-03   -0.96329E-03  2208   0.282E-01 0.198E-03
CGA:  27    -0.808558722838E+03   -0.11688E-02   -0.11666E-02  2208   0.504E-01 0.280E-03
CGA:  28    -0.808560384276E+03   -0.16614E-02   -0.16623E-02  2208   0.181E-01 0.473E-03
CGA:  29    -0.808560946315E+03   -0.56204E-03   -0.56235E-03  2208   0.114E-01 0.782E-04
CGA:  30    -0.808561227935E+03   -0.28162E-03   -0.28164E-03  2208   0.783E-02-0.197E-04
CGA:  31    -0.808561844031E+03   -0.61610E-03   -0.62596E-03  2208   0.163E-01-0.214E-03
SDA:  32    -0.808562395416E+03   -0.55138E-03   -0.55120E-03  2208   0.102E-01-0.191E-03
CGA:  33    -0.808562566095E+03   -0.17068E-03   -0.17108E-03  2208   0.432E-02 0.154E-04
CGA:  34    -0.808562688192E+03   -0.12210E-03   -0.12236E-03  2208   0.230E-02 0.369E-04
CGA:  35    -0.808562865968E+03   -0.17778E-03   -0.17361E-03  2208   0.421E-02 0.101E-03
CGA:  36    -0.808563147667E+03   -0.28170E-03   -0.27818E-03  2208   0.462E-02 0.129E-03
CGA:  37    -0.808563332522E+03   -0.18486E-03   -0.18482E-03  2208   0.221E-02 0.323E-04
CGA:  38    -0.808563393305E+03   -0.60783E-04   -0.60450E-04  2208   0.241E-02-0.327E-04
CGA:  39    -0.808563554945E+03   -0.16164E-03   -0.16771E-03  2208   0.380E-02-0.183E-03
CGA:  40    -0.808563683395E+03   -0.12845E-03   -0.12809E-03  2208   0.311E-02-0.142E-03
CGA:  41    -0.808563752956E+03   -0.69562E-04   -0.68763E-04  2208   0.166E-02-0.531E-04
CGA:  42    -0.808563811317E+03   -0.58361E-04   -0.58365E-04  2208   0.124E-02 0.144E-06
CGA:  43    -0.808563930025E+03   -0.11871E-03   -0.11313E-03  2208   0.178E-02 0.104E-03
CGA:  44    -0.808564013329E+03   -0.83305E-04   -0.83095E-04  2208   0.141E-02 0.828E-04
CGA:  45    -0.808564041874E+03   -0.28545E-04   -0.29132E-04  2208   0.608E-03 0.272E-04
CGA:  46    -0.808564069838E+03   -0.27963E-04   -0.27880E-04  2208   0.702E-03 0.151E-04
CGA:  47    -0.808564106790E+03   -0.36952E-04   -0.36898E-04  2208   0.144E-02 0.391E-05
CGA:  48    -0.808564150248E+03   -0.43458E-04   -0.43416E-04  2208   0.638E-03-0.529E-05
CGA:  49    -0.808564173991E+03   -0.23744E-04   -0.23714E-04  2208   0.259E-03-0.118E-04
CGA:  50    -0.808564189473E+03   -0.15482E-04   -0.15911E-04  2208   0.381E-03-0.194E-04
CGA:  51    -0.808564204988E+03   -0.15514E-04   -0.15585E-04  2208   0.627E-03-0.222E-04
CGA:  52    -0.808564224449E+03   -0.19461E-04   -0.19256E-04  2208   0.414E-03-0.247E-04
CGA:  53    -0.808564235649E+03   -0.11200E-04   -0.11078E-04  2208   0.174E-03-0.100E-04
CGA:  54    -0.808564240845E+03   -0.51958E-05   -0.52150E-05  2208   0.174E-03 0.148E-05
   5 F= -.80856424E+03 E0= -.80849201E+03  d E =-.217486E+00  mag=    66.0000
       N       E                     dE             d eps       ncg     rms          ort
SDA:   1    -0.805754673046E+03    0.28096E+01    0.00000E+00  2208   0.115E+02 0.000E+00
CGA:   2    -0.806332927353E+03   -0.57825E+00   -0.58981E+00  2208   0.213E+02-0.710E+00
CGA:   3    -0.807270360318E+03   -0.93743E+00   -0.93506E+00  2208   0.256E+02 0.231E+00
CGA:   4    -0.807840374411E+03   -0.57001E+00   -0.57390E+00  2208   0.527E+01-0.677E-01
CGA:   5    -0.808032772636E+03   -0.19240E+00   -0.19245E+00  2208   0.541E+01 0.672E-02
CGA:   6    -0.808238677809E+03   -0.20591E+00   -0.20584E+00  2208   0.570E+01-0.186E-01
CGA:   7    -0.808427477489E+03   -0.18880E+00   -0.18841E+00  2208   0.278E+01-0.203E-01
CGA:   8    -0.808521992413E+03   -0.94515E-01   -0.94663E-01  2208   0.661E+00 0.108E-01
CGA:   9    -0.808547764998E+03   -0.25773E-01   -0.25772E-01  2208   0.411E+00 0.653E-03
CGA:  10    -0.808564953199E+03   -0.17188E-01   -0.17191E-01  2208   0.665E+00-0.476E-03
CGA:  11    -0.808585861843E+03   -0.20909E-01   -0.20924E-01  2208   0.336E+00 0.770E-03
CGA:  12    -0.808597588026E+03   -0.11726E-01   -0.11732E-01  2208   0.102E+00 0.732E-03
CGA:  13    -0.808600036878E+03   -0.24489E-02   -0.24492E-02  2208   0.614E-01 0.408E-04
CGA:  14    -0.808602170066E+03   -0.21332E-02   -0.21336E-02  2208   0.407E-01 0.702E-04
CGA:  15    -0.808605425626E+03   -0.32556E-02   -0.32495E-02  2208   0.664E-01 0.148E-03
CGA:  16    -0.808607573232E+03   -0.21476E-02   -0.21475E-02  2208   0.307E-01 0.113E-04
CGA:  17    -0.808608167545E+03   -0.59431E-03   -0.59458E-03  2208   0.123E-01 0.169E-04
CGA:  18    -0.808608694714E+03   -0.52717E-03   -0.52693E-03  2208   0.105E-01 0.417E-04
CGA:  19    -0.808609583367E+03   -0.88865E-03   -0.88529E-03  2208   0.205E-01 0.723E-04
CGA:  20    -0.808610248203E+03   -0.66484E-03   -0.66540E-03  2208   0.141E-01 0.533E-04
CGA:  21    -0.808610645673E+03   -0.39747E-03   -0.39760E-03  2208   0.605E-02 0.147E-04
CGA:  22    -0.808610864536E+03   -0.21886E-03   -0.21883E-03  2208   0.485E-02-0.140E-04
CGA:  23    -0.808611171587E+03   -0.30705E-03   -0.30822E-03  2208   0.102E-01-0.490E-04
CGA:  24    -0.808611445068E+03   -0.27348E-03   -0.27277E-03  2208   0.636E-02-0.517E-04
CGA:  25    -0.808611702179E+03   -0.25711E-03   -0.25713E-03  2208   0.189E-02-0.299E-04
CGA:  26    -0.808611801726E+03   -0.99547E-04   -0.99296E-04  2208   0.190E-02 0.190E-04
CGA:  27    -0.808611886336E+03   -0.84610E-04   -0.84495E-04  2208   0.319E-02 0.351E-04
CGA:  28    -0.808612013561E+03   -0.12722E-03   -0.12732E-03  2208   0.146E-02 0.561E-04
CGA:  29    -0.808612064704E+03   -0.51143E-04   -0.51224E-04  2208   0.702E-03 0.126E-04
CGA:  30    -0.808612087251E+03   -0.22547E-04   -0.22486E-04  2208   0.922E-03-0.727E-05
CGA:  31    -0.808612133958E+03   -0.46708E-04   -0.47052E-04  2208   0.102E-02-0.302E-04
SDA:  32    -0.808612181155E+03   -0.47197E-04   -0.47450E-04  2208   0.475E-03-0.340E-04
CGA:  33    -0.808612191751E+03   -0.10596E-04   -0.10666E-04  2208   0.261E-03 0.358E-05
CGA:  34    -0.808612201328E+03   -0.95768E-05   -0.96060E-05  2208   0.273E-03 0.805E-05
CGA:  35    -0.808612217453E+03   -0.16124E-04   -0.15838E-04  2208   0.366E-03 0.173E-04
CGA:  36    -0.808612232226E+03   -0.14774E-04   -0.14807E-04  2208   0.325E-03 0.122E-04
CGA:  37    -0.808612240485E+03   -0.82583E-05   -0.83080E-05  2208   0.148E-03 0.295E-05
   6 F= -.80861224E+03 E0= -.80854359E+03  d E =-.479996E-01  mag=    66.0000
       N       E                     dE             d eps       ncg     rms          ort
SDA:   1    -0.784420151468E+03    0.24192E+02    0.00000E+00  2208   0.117E+03 0.000E+00
CGA:   2    -0.790722168403E+03   -0.63020E+01   -0.66313E+01  2208   0.160E+03-0.129E+02
CGA:   3    -0.798315040979E+03   -0.75929E+01   -0.75399E+01  2208   0.111E+03 0.323E+01
CGA:   4    -0.801491997550E+03   -0.31770E+01   -0.29835E+01  2208   0.567E+02 0.100E+01
CGA:   5    -0.803253420432E+03   -0.17614E+01   -0.17742E+01  2208   0.423E+02 0.171E+00
CGA:   6    -0.805478949660E+03   -0.22255E+01   -0.22695E+01  2208   0.552E+02-0.253E+01
CGA:   7    -0.806977226566E+03   -0.14983E+01   -0.15189E+01  2208   0.294E+02 0.195E+00
CGA:   8    -0.807804989170E+03   -0.82776E+00   -0.82325E+00  2208   0.112E+02-0.609E-02
CGA:   9    -0.808052193285E+03   -0.24720E+00   -0.24061E+00  2208   0.532E+01 0.117E+00
CGA:  10    -0.808189897541E+03   -0.13770E+00   -0.13659E+00  2208   0.297E+01 0.220E-02
CGA:  11    -0.808357604302E+03   -0.16771E+00   -0.16724E+00  2208   0.501E+01 0.219E-01
CGA:  12    -0.808471122095E+03   -0.11352E+00   -0.11487E+00  2208   0.254E+01-0.157E-01
CGA:  13    -0.808556561641E+03   -0.85440E-01   -0.85721E-01  2208   0.914E+00 0.249E-01
CGA:  14    -0.808579162119E+03   -0.22600E-01   -0.22609E-01  2208   0.492E+00 0.188E-03
CGA:  15    -0.808591846489E+03   -0.12684E-01   -0.12698E-01  2208   0.320E+00 0.248E-03
CGA:  16    -0.808610148672E+03   -0.18302E-01   -0.18184E-01  2208   0.466E+00 0.498E-02
CGA:  17    -0.808630968461E+03   -0.20820E-01   -0.20771E-01  2208   0.436E+00 0.522E-02
CGA:  18    -0.808640053456E+03   -0.90850E-02   -0.90683E-02  2208   0.135E+00 0.347E-03
CGA:  19    -0.808645105668E+03   -0.50522E-02   -0.50516E-02  2208   0.817E-01 0.801E-03
CGA:  20    -0.808648063455E+03   -0.29578E-02   -0.29583E-02  2208   0.906E-01 0.246E-03
CGA:  21    -0.808652120974E+03   -0.40575E-02   -0.40515E-02  2208   0.117E+00 0.513E-03
CGA:  22    -0.808657698227E+03   -0.55773E-02   -0.55650E-02  2208   0.113E+00 0.892E-03
CGA:  23    -0.808660531188E+03   -0.28330E-02   -0.28333E-02  2208   0.399E-01 0.221E-04
CGA:  24    -0.808661989735E+03   -0.14585E-02   -0.14587E-02  2208   0.317E-01 0.124E-03
CGA:  25    -0.808663512788E+03   -0.15231E-02   -0.15203E-02  2208   0.455E-01 0.205E-03
CGA:  26    -0.808665072053E+03   -0.15593E-02   -0.15595E-02  2208   0.369E-01 0.587E-04
CGA:  27    -0.808666817203E+03   -0.17451E-02   -0.17431E-02  2208   0.153E-01 0.163E-03
CGA:  28    -0.808667346105E+03   -0.52890E-03   -0.52902E-03  2208   0.157E-01 0.149E-04
CGA:  29    -0.808667875509E+03   -0.52940E-03   -0.52944E-03  2208   0.114E-01-0.352E-05
CGA:  30    -0.808668662191E+03   -0.78668E-03   -0.78724E-03  2208   0.151E-01-0.214E-04
CGA:  31    -0.808669164818E+03   -0.50263E-03   -0.50263E-03  2208   0.802E-02-0.198E-04
SDA:  32    -0.808669377127E+03   -0.21231E-03   -0.21239E-03  2208   0.431E-02-0.119E-04
CGA:  33    -0.808669490932E+03   -0.11380E-03   -0.11386E-03  2208   0.308E-02 0.360E-05
CGA:  34    -0.808669654575E+03   -0.16364E-03   -0.16355E-03  2208   0.502E-02 0.723E-05
CGA:  35    -0.808669937608E+03   -0.28303E-03   -0.28261E-03  2208   0.317E-02 0.217E-04
CGA:  36    -0.808670096336E+03   -0.15873E-03   -0.15865E-03  2208   0.189E-02 0.693E-05
CGA:  37    -0.808670207727E+03   -0.11139E-03   -0.11142E-03  2208   0.218E-02-0.229E-05
CGA:  38    -0.808670329867E+03   -0.12214E-03   -0.12234E-03  2208   0.308E-02-0.138E-04
CGA:  39    -0.808670455303E+03   -0.12544E-03   -0.12542E-03  2208   0.189E-02-0.192E-04
CGA:  40    -0.808670521166E+03   -0.65863E-04   -0.65794E-04  2208   0.736E-03-0.113E-04
CGA:  41    -0.808670581136E+03   -0.59970E-04   -0.60205E-04  2208   0.114E-02-0.626E-05
CGA:  42    -0.808670659380E+03   -0.78244E-04   -0.78339E-04  2208   0.111E-02-0.411E-05
CGA:  43    -0.808670702157E+03   -0.42777E-04   -0.42769E-04  2208   0.926E-03-0.160E-05
CGA:  44    -0.808670726180E+03   -0.24023E-04   -0.24041E-04  2208   0.372E-03 0.645E-06
CGA:  45    -0.808670750912E+03   -0.24732E-04   -0.24685E-04  2208   0.476E-03 0.165E-05
CGA:  46    -0.808670799012E+03   -0.48100E-04   -0.47960E-04  2208   0.444E-03 0.207E-05
CGA:  47    -0.808670823471E+03   -0.24459E-04   -0.24450E-04  2208   0.316E-03 0.984E-06
CGA:  48    -0.808670832459E+03   -0.89874E-05   -0.89952E-05  2208   0.219E-03 0.163E-06
CGA:  49    -0.808670844663E+03   -0.12204E-04   -0.12187E-04  2208   0.266E-03 0.180E-05
CGA:  50    -0.808670861647E+03   -0.16984E-04   -0.16930E-04  2208   0.384E-03 0.323E-05
CGA:  51    -0.808670872214E+03   -0.10568E-04   -0.10617E-04  2208   0.136E-03 0.198E-05
CGA:  52    -0.808670877663E+03   -0.54487E-05   -0.54486E-05  2208   0.919E-04-0.272E-06
   7 F= -.80867088E+03 E0= -.80861323E+03  d E =-.586372E-01  mag=    66.0000
       N       E                     dE             d eps       ncg     rms          ort
SDA:   1    -0.797260038058E+03    0.11411E+02    0.00000E+00  2208   0.669E+02 0.000E+00
CGA:   2    -0.800216968466E+03   -0.29569E+01   -0.29621E+01  2208   0.864E+02 0.927E+00
CGA:   3    -0.803608343619E+03   -0.33914E+01   -0.33868E+01  2208   0.597E+02-0.187E+00
CGA:   4    -0.805221813022E+03   -0.16135E+01   -0.16752E+01  2208   0.210E+02-0.780E+00
CGA:   5    -0.805954345294E+03   -0.73253E+00   -0.71188E+00  2208   0.225E+02-0.349E+00
CGA:   6    -0.806956242486E+03   -0.10019E+01   -0.10022E+01  2208   0.199E+02-0.379E+00
CGA:   7    -0.808043835891E+03   -0.10876E+01   -0.10876E+01  2208   0.114E+02 0.454E-02
CGA:   8    -0.808277097103E+03   -0.23326E+00   -0.22877E+00  2208   0.315E+01 0.120E+00
CGA:   9    -0.808380031240E+03   -0.10293E+00   -0.10320E+00  2208   0.185E+01 0.428E-02
CGA:  10    -0.808468293065E+03   -0.88262E-01   -0.88360E-01  2208   0.253E+01-0.136E-01
CGA:  11    -0.808556549571E+03   -0.88257E-01   -0.88469E-01  2208   0.126E+01 0.704E-02
CGA:  12    -0.808594831157E+03   -0.38282E-01   -0.38182E-01  2208   0.312E+00-0.334E-03
CGA:  13    -0.808605765128E+03   -0.10934E-01   -0.10945E-01  2208   0.232E+00 0.457E-03
CGA:  14    -0.808616371899E+03   -0.10607E-01   -0.10600E-01  2208   0.298E+00 0.122E-02
CGA:  15    -0.808628240603E+03   -0.11869E-01   -0.11867E-01  2208   0.213E+00-0.229E-03
CGA:  16    -0.808636107946E+03   -0.78673E-02   -0.78713E-02  2208   0.103E+00 0.323E-03
CGA:  17    -0.808638529224E+03   -0.24213E-02   -0.24220E-02  2208   0.394E-01 0.325E-04
CGA:  18    -0.808640800698E+03   -0.22715E-02   -0.22703E-02  2208   0.555E-01 0.489E-04
CGA:  19    -0.808644185081E+03   -0.33844E-02   -0.33773E-02  2208   0.516E-01 0.309E-03
CGA:  20    -0.808645949750E+03   -0.17647E-02   -0.17649E-02  2208   0.388E-01 0.247E-05
CGA:  21    -0.808647224215E+03   -0.12745E-02   -0.12758E-02  2208   0.157E-01 0.434E-04
CGA:  22    -0.808647945449E+03   -0.72123E-03   -0.72116E-03  2208   0.199E-01 0.120E-04
CGA:  23    -0.808648731183E+03   -0.78573E-03   -0.78587E-03  2208   0.210E-01 0.201E-04
CGA:  24    -0.808649875003E+03   -0.11438E-02   -0.11433E-02  2208   0.127E-01 0.277E-04
CGA:  25    -0.808650361945E+03   -0.48694E-03   -0.48689E-03  2208   0.897E-02-0.128E-04
CGA:  26    -0.808650642165E+03   -0.28022E-03   -0.28029E-03  2208   0.507E-02-0.296E-06
CGA:  27    -0.808650962992E+03   -0.32083E-03   -0.32065E-03  2208   0.798E-02 0.711E-05
CGA:  28    -0.808651361604E+03   -0.39861E-03   -0.39853E-03  2208   0.771E-02 0.939E-05
CGA:  29    -0.808651567835E+03   -0.20623E-03   -0.20626E-03  2208   0.298E-02-0.853E-07
CGA:  30    -0.808651669968E+03   -0.10213E-03   -0.10213E-03  2208   0.206E-02-0.112E-05
CGA:  31    -0.808651815827E+03   -0.14586E-03   -0.14589E-03  2208   0.378E-02-0.167E-05
SDA:  32    -0.808651966005E+03   -0.15018E-03   -0.15017E-03  2208   0.289E-02-0.195E-05
CGA:  33    -0.808652022559E+03   -0.56554E-04   -0.56549E-04  2208   0.956E-03-0.110E-05
CGA:  34    -0.808652061743E+03   -0.39184E-04   -0.39182E-04  2208   0.753E-03-0.199E-05
CGA:  35    -0.808652115937E+03   -0.54194E-04   -0.54315E-04  2208   0.135E-02-0.434E-05
CGA:  36    -0.808652211283E+03   -0.95346E-04   -0.95599E-04  2208   0.101E-02-0.927E-05
CGA:  37    -0.808652247036E+03   -0.35753E-04   -0.35710E-04  2208   0.586E-03-0.465E-05
CGA:  38    -0.808652263614E+03   -0.16578E-04   -0.16551E-04  2208   0.468E-03-0.194E-05
CGA:  39    -0.808652300311E+03   -0.36696E-04   -0.36823E-04  2208   0.712E-03-0.395E-05
CGA:  40    -0.808652345555E+03   -0.45244E-04   -0.45312E-04  2208   0.523E-03-0.397E-05
CGA:  41    -0.808652365667E+03   -0.20112E-04   -0.20105E-04  2208   0.325E-03-0.956E-06
CGA:  42    -0.808652374412E+03   -0.87458E-05   -0.87532E-05  2208   0.205E-03 0.218E-06
CGA:  43    -0.808652391729E+03   -0.17316E-04   -0.17229E-04  2208   0.303E-03 0.201E-05
CGA:  44    -0.808652407847E+03   -0.16118E-04   -0.16100E-04  2208   0.252E-03 0.302E-05
CGA:  45    -0.808652413980E+03   -0.61324E-05   -0.61658E-05  2208   0.131E-03 0.132E-05
   8 F= -.80865241E+03 E0= -.80859284E+03  d E =0.184637E-01  mag=    66.0000
       N       E                     dE             d eps       ncg     rms          ort
SDA:   1    -0.807017743086E+03    0.16347E+01    0.00000E+00  2208   0.112E+02 0.000E+00
CGA:   2    -0.807419790224E+03   -0.40205E+00   -0.39983E+00  2208   0.119E+02-0.435E-01
CGA:   3    -0.807961515565E+03   -0.54173E+00   -0.54174E+00  2208   0.851E+01 0.257E-01
CGA:   4    -0.808216904538E+03   -0.25539E+00   -0.25367E+00  2208   0.199E+01 0.151E-02
CGA:   5    -0.808361120240E+03   -0.14422E+00   -0.14463E+00  2208   0.391E+01-0.134E-01
CGA:   6    -0.808511485594E+03   -0.15037E+00   -0.14997E+00  2208   0.369E+01-0.144E-01
CGA:   7    -0.808630616958E+03   -0.11913E+00   -0.11924E+00  2208   0.769E+00 0.178E-03
CGA:   8    -0.808658285194E+03   -0.27668E-01   -0.27699E-01  2208   0.252E+00 0.756E-03
CGA:   9    -0.808670607254E+03   -0.12322E-01   -0.12326E-01  2208   0.322E+00-0.521E-03
CGA:  10    -0.808684096647E+03   -0.13489E-01   -0.13490E-01  2208   0.235E+00 0.139E-03
CGA:  11    -0.808691373239E+03   -0.72766E-02   -0.72710E-02  2208   0.642E-01-0.174E-04
CGA:  12    -0.808693842754E+03   -0.24695E-02   -0.24703E-02  2208   0.262E-01 0.568E-04
CGA:  13    -0.808695348364E+03   -0.15056E-02   -0.15052E-02  2208   0.479E-01 0.338E-04
CGA:  14    -0.808697048928E+03   -0.17006E-02   -0.17009E-02  2208   0.294E-01 0.288E-04
CGA:  15    -0.808698216238E+03   -0.11673E-02   -0.11678E-02  2208   0.105E-01 0.570E-04
CGA:  16    -0.808698613607E+03   -0.39737E-03   -0.39738E-03  2208   0.567E-02 0.481E-05
CGA:  17    -0.808698831712E+03   -0.21811E-03   -0.21813E-03  2208   0.707E-02 0.327E-05
CGA:  18    -0.808699295726E+03   -0.46401E-03   -0.46374E-03  2208   0.556E-02 0.102E-04
CGA:  19    -0.808699561704E+03   -0.26598E-03   -0.26595E-03  2208   0.275E-02 0.603E-05
CGA:  20    -0.808699669618E+03   -0.10791E-03   -0.10793E-03  2208   0.227E-02 0.251E-05
CGA:  21    -0.808699738867E+03   -0.69250E-04   -0.69331E-04  2208   0.161E-02 0.448E-05
CGA:  22    -0.808699884505E+03   -0.14564E-03   -0.14497E-03  2208   0.203E-02 0.142E-04
CGA:  23    -0.808699962872E+03   -0.78367E-04   -0.78423E-04  2208   0.140E-02 0.633E-05
CGA:  24    -0.808700002239E+03   -0.39367E-04   -0.39381E-04  2208   0.588E-03 0.482E-06
CGA:  25    -0.808700036731E+03   -0.34492E-04   -0.34520E-04  2208   0.636E-03-0.230E-05
CGA:  26    -0.808700074193E+03   -0.37462E-04   -0.37520E-04  2208   0.704E-03-0.449E-05
CGA:  27    -0.808700110541E+03   -0.36348E-04   -0.36373E-04  2208   0.602E-03-0.436E-05
CGA:  28    -0.808700124273E+03   -0.13732E-04   -0.13699E-04  2208   0.204E-03-0.164E-05
CGA:  29    -0.808700137505E+03   -0.13232E-04   -0.13207E-04  2208   0.236E-03 0.105E-05
CGA:  30    -0.808700150972E+03   -0.13467E-04   -0.13449E-04  2208   0.366E-03 0.168E-05
CGA:  31    -0.808700164960E+03   -0.13988E-04   -0.14005E-04  2208   0.231E-03 0.181E-05
SDA:  32    -0.808700173203E+03   -0.82425E-05   -0.82476E-05  2208   0.724E-04 0.259E-06
   9 F= -.80870017E+03 E0= -.80864229E+03  d E =-.477592E-01  mag=    66.0000
       N       E                     dE             d eps       ncg     rms          ort
SDA:   1    -0.806631252157E+03    0.20689E+01    0.00000E+00  2208   0.100E+02 0.000E+00
CGA:   2    -0.807146470227E+03   -0.51522E+00   -0.51643E+00  2208   0.189E+02-0.124E+00
CGA:   3    -0.807849886113E+03   -0.70342E+00   -0.70266E+00  2208   0.692E+01-0.255E-01
CGA:   4    -0.808113127438E+03   -0.26324E+00   -0.26413E+00  2208   0.317E+01 0.372E-01
CGA:   5    -0.808303004113E+03   -0.18988E+00   -0.19024E+00  2208   0.520E+01-0.184E-01
CGA:   6    -0.808509865429E+03   -0.20686E+00   -0.20676E+00  2208   0.394E+01-0.592E-02
CGA:   7    -0.808636111039E+03   -0.12625E+00   -0.12645E+00  2208   0.704E+00 0.193E-02
CGA:   8    -0.808662327805E+03   -0.26217E-01   -0.26232E-01  2208   0.291E+00 0.647E-03
CGA:   9    -0.808686160896E+03   -0.23833E-01   -0.23810E-01  2208   0.336E+00 0.633E-03
CGA:  10    -0.808699793649E+03   -0.13633E-01   -0.13639E-01  2208   0.232E+00 0.390E-03
CGA:  11    -0.808705566235E+03   -0.57726E-02   -0.57851E-02  2208   0.609E-01-0.172E-03
CGA:  12    -0.808708180043E+03   -0.26138E-02   -0.26138E-02  2208   0.375E-01 0.563E-05
CGA:  13    -0.808710483366E+03   -0.23033E-02   -0.23023E-02  2208   0.448E-01 0.603E-04
CGA:  14    -0.808712121174E+03   -0.16378E-02   -0.16391E-02  2208   0.403E-01 0.622E-04
CGA:  15    -0.808713549007E+03   -0.14278E-02   -0.14286E-02  2208   0.104E-01 0.396E-04
CGA:  16    -0.808714010919E+03   -0.46191E-03   -0.46191E-03  2208   0.567E-02-0.370E-05
CGA:  17    -0.808714681139E+03   -0.67022E-03   -0.66903E-03  2208   0.724E-02 0.174E-04
CGA:  18    -0.808715119262E+03   -0.43812E-03   -0.43812E-03  2208   0.846E-02-0.171E-05
CGA:  19    -0.808715323260E+03   -0.20400E-03   -0.20422E-03  2208   0.287E-02-0.314E-05
CGA:  20    -0.808715463338E+03   -0.14008E-03   -0.14007E-03  2208   0.243E-02 0.545E-05
CGA:  21    -0.808715653864E+03   -0.19053E-03   -0.19020E-03  2208   0.343E-02 0.105E-04
CGA:  22    -0.808715836694E+03   -0.18283E-03   -0.18279E-03  2208   0.242E-02 0.101E-04
CGA:  23    -0.808715903656E+03   -0.66962E-04   -0.67057E-04  2208   0.126E-02 0.193E-05
CGA:  24    -0.808715964125E+03   -0.60469E-04   -0.60469E-04  2208   0.790E-03 0.251E-07
CGA:  25    -0.808716031665E+03   -0.67539E-04   -0.67619E-04  2208   0.122E-02-0.239E-05
CGA:  26    -0.808716095104E+03   -0.63439E-04   -0.63442E-04  2208   0.959E-03-0.230E-05
CGA:  27    -0.808716118048E+03   -0.22944E-04   -0.22970E-04  2208   0.385E-03-0.392E-06
CGA:  28    -0.808716140326E+03   -0.22278E-04   -0.22264E-04  2208   0.348E-03 0.149E-05
CGA:  29    -0.808716170346E+03   -0.30020E-04   -0.29904E-04  2208   0.492E-03 0.303E-05
CGA:  30    -0.808716196732E+03   -0.26386E-04   -0.26382E-04  2208   0.244E-03 0.223E-05
CGA:  31    -0.808716203416E+03   -0.66844E-05   -0.66819E-05  2208   0.168E-03-0.233E-06
SDA:  32    -0.808716215688E+03   -0.12271E-04   -0.12326E-04  2208   0.180E-03-0.246E-05
CGA:  33    -0.808716221353E+03   -0.56651E-05   -0.56543E-05  2208   0.888E-04-0.660E-06
  10 F= -.80871622E+03 E0= -.80866108E+03  d E =-.160482E-01  mag=    66.0000
       N       E                     dE             d eps       ncg     rms          ort
SDA:   1    -0.798994291602E+03    0.97219E+01    0.00000E+00  2208   0.421E+02 0.000E+00
CGA:   2    -0.801541315120E+03   -0.25470E+01   -0.25382E+01  2208   0.761E+02 0.617E+00
CGA:   3    -0.804523127916E+03   -0.29818E+01   -0.29382E+01  2208   0.396E+02-0.592E+00
CGA:   4    -0.805912631345E+03   -0.13895E+01   -0.13994E+01  2208   0.170E+02 0.464E-01
CGA:   5    -0.806825927130E+03   -0.91330E+00   -0.91968E+00  2208   0.202E+02-0.762E+00
CGA:   6    -0.807707225421E+03   -0.88130E+00   -0.88155E+00  2208   0.170E+02 0.363E-01
CGA:   7    -0.808362608932E+03   -0.65538E+00   -0.65079E+00  2208   0.292E+01-0.755E-01
CGA:   8    -0.808494811395E+03   -0.13220E+00   -0.13198E+00  2208   0.157E+01-0.321E-01
CGA:   9    -0.808576893290E+03   -0.82082E-01   -0.81941E-01  2208   0.183E+01 0.185E-01
CGA:  10    -0.808641004571E+03   -0.64111E-01   -0.64254E-01  2208   0.106E+01 0.186E-02
CGA:  11    -0.808683307765E+03   -0.42303E-01   -0.42256E-01  2208   0.306E+00-0.157E-02
CGA:  12    -0.808694778624E+03   -0.11471E-01   -0.11461E-01  2208   0.255E+00-0.118E-03
CGA:  13    -0.808705163239E+03   -0.10385E-01   -0.10393E-01  2208   0.140E+00 0.577E-03
CGA:  14    -0.808716772085E+03   -0.11609E-01   -0.11565E-01  2208   0.149E+00 0.115E-02
CGA:  15    -0.808722145243E+03   -0.53732E-02   -0.53930E-02  2208   0.475E-01 0.319E-03
CGA:  16    -0.808723865472E+03   -0.17202E-02   -0.17221E-02  2208   0.453E-01 0.390E-04
CGA:  17    -0.808726407320E+03   -0.25418E-02   -0.25405E-02  2208   0.348E-01 0.110E-03
CGA:  18    -0.808728655944E+03   -0.22486E-02   -0.22462E-02  2208   0.464E-01 0.123E-03
CGA:  19    -0.808730162595E+03   -0.15067E-02   -0.15098E-02  2208   0.161E-01 0.540E-05
CGA:  20    -0.808730938739E+03   -0.77614E-03   -0.77610E-03  2208   0.121E-01 0.371E-04
CGA:  21    -0.808732028891E+03   -0.10902E-02   -0.10866E-02  2208   0.160E-01 0.827E-04
CGA:  22    -0.808732708019E+03   -0.67913E-03   -0.67953E-03  2208   0.149E-01 0.281E-04
CGA:  23    -0.808733273158E+03   -0.56514E-03   -0.56559E-03  2208   0.596E-02 0.172E-04
CGA:  24    -0.808733574870E+03   -0.30171E-03   -0.30170E-03  2208   0.510E-02 0.366E-05
CGA:  25    -0.808733826829E+03   -0.25196E-03   -0.25196E-03  2208   0.630E-02 0.306E-05
CGA:  26    -0.808734187663E+03   -0.36083E-03   -0.36075E-03  2208   0.371E-02 0.571E-05
CGA:  27    -0.808734370331E+03   -0.18267E-03   -0.18267E-03  2208   0.197E-02 0.376E-05
CGA:  28    -0.808734470285E+03   -0.99955E-04   -0.99954E-04  2208   0.231E-02 0.742E-06
CGA:  29    -0.808734577112E+03   -0.10683E-03   -0.10684E-03  2208   0.227E-02 0.355E-05
CGA:  30    -0.808734710802E+03   -0.13369E-03   -0.13362E-03  2208   0.138E-02 0.645E-05
CGA:  31    -0.808734765968E+03   -0.55166E-04   -0.55182E-04  2208   0.993E-03 0.756E-06
SDA:  32    -0.808734809834E+03   -0.43866E-04   -0.43855E-04  2208   0.742E-03-0.258E-05
CGA:  33    -0.808734830122E+03   -0.20288E-04   -0.20277E-04  2208   0.417E-03-0.119E-05
CGA:  34    -0.808734857733E+03   -0.27611E-04   -0.27687E-04  2208   0.712E-03-0.448E-05
CGA:  35    -0.808734899939E+03   -0.42207E-04   -0.42287E-04  2208   0.615E-03-0.739E-05
CGA:  36    -0.808734925781E+03   -0.25842E-04   -0.25817E-04  2208   0.400E-03-0.351E-05
CGA:  37    -0.808734938540E+03   -0.12759E-04   -0.12750E-04  2208   0.188E-03-0.873E-06
CGA:  38    -0.808734952401E+03   -0.13861E-04   -0.13829E-04  2208   0.204E-03 0.993E-06
CGA:  39    -0.808734976794E+03   -0.24393E-04   -0.24180E-04  2208   0.320E-03 0.285E-05
CGA:  40    -0.808734994145E+03   -0.17351E-04   -0.17350E-04  2208   0.131E-03 0.622E-06
CGA:  41    -0.808734999866E+03   -0.57218E-05   -0.57062E-05  2208   0.146E-03-0.185E-05
  11 F= -.80873500E+03 E0= -.80868753E+03  d E =-.187785E-01  mag=    66.0000
       N       E                     dE             d eps       ncg     rms          ort
SDA:   1    -0.787345871675E+03    0.21389E+02    0.00000E+00  2208   0.123E+03 0.000E+00
CGA:   2    -0.791935210318E+03   -0.45893E+01   -0.47609E+01  2208   0.122E+03 0.355E+01
CGA:   3    -0.798535199075E+03   -0.66000E+01   -0.66252E+01  2208   0.875E+02-0.899E+01
CGA:   4    -0.802977718599E+03   -0.44425E+01   -0.44457E+01  2208   0.486E+02-0.856E+00
CGA:   5    -0.804517115465E+03   -0.15394E+01   -0.12119E+01  2208   0.204E+02 0.838E+01
CGA:   6    -0.806489247755E+03   -0.19721E+01   -0.19960E+01  2208   0.311E+02-0.669E+00
CGA:   7    -0.807643966605E+03   -0.11547E+01   -0.11652E+01  2208   0.213E+02 0.158E+00
CGA:   8    -0.808092520015E+03   -0.44855E+00   -0.44042E+00  2208   0.615E+01 0.346E+00
CGA:   9    -0.808292303801E+03   -0.19978E+00   -0.19680E+00  2208   0.319E+01 0.152E-01
CGA:  10    -0.808408539991E+03   -0.11624E+00   -0.11825E+00  2208   0.287E+01 0.352E-01
CGA:  11    -0.808535508774E+03   -0.12697E+00   -0.12722E+00  2208   0.265E+01 0.253E-01
CGA:  12    -0.808623821557E+03   -0.88313E-01   -0.88984E-01  2208   0.140E+01 0.482E-02
CGA:  13    -0.808674624113E+03   -0.50803E-01   -0.51158E-01  2208   0.421E+00 0.727E-02
CGA:  14    -0.808688542072E+03   -0.13918E-01   -0.14013E-01  2208   0.266E+00 0.802E-03
CGA:  15    -0.808701567956E+03   -0.13026E-01   -0.12997E-01  2208   0.369E+00 0.594E-02
CGA:  16    -0.808725056806E+03   -0.23489E-01   -0.23448E-01  2208   0.193E+00 0.189E-02
CGA:  17    -0.808734928158E+03   -0.98714E-02   -0.98613E-02  2208   0.959E-01 0.150E-02
CGA:  18    -0.808738435554E+03   -0.35074E-02   -0.35200E-02  2208   0.585E-01 0.265E-03
CGA:  19    -0.808741205574E+03   -0.27700E-02   -0.27700E-02  2208   0.645E-01 0.115E-04
CGA:  20    -0.808746078447E+03   -0.48729E-02   -0.48621E-02  2208   0.592E-01 0.297E-03
CGA:  21    -0.808749080558E+03   -0.30021E-02   -0.29995E-02  2208   0.381E-01 0.623E-03
CGA:  22    -0.808750518389E+03   -0.14378E-02   -0.14396E-02  2208   0.174E-01 0.329E-04
CGA:  23    -0.808751582277E+03   -0.10639E-02   -0.10627E-02  2208   0.206E-01 0.726E-04
CGA:  24    -0.808752831024E+03   -0.12487E-02   -0.12469E-02  2208   0.220E-01 0.119E-03
CGA:  25    -0.808753664161E+03   -0.83314E-03   -0.83428E-03  2208   0.910E-02 0.439E-04
CGA:  26    -0.808754159210E+03   -0.49505E-03   -0.49489E-03  2208   0.639E-02 0.205E-04
CGA:  27    -0.808754727172E+03   -0.56796E-03   -0.56741E-03  2208   0.779E-02 0.107E-04
CGA:  28    -0.808755180396E+03   -0.45322E-03   -0.45300E-03  2208   0.686E-02 0.150E-04
CGA:  29    -0.808755437432E+03   -0.25704E-03   -0.25694E-03  2208   0.270E-02-0.775E-05
CGA:  30    -0.808755575193E+03   -0.13776E-03   -0.13776E-03  2208   0.261E-02-0.347E-05
CGA:  31    -0.808755756021E+03   -0.18083E-03   -0.18074E-03  2208   0.370E-02 0.382E-05
SDA:  32    -0.808755946938E+03   -0.19092E-03   -0.19092E-03  2208   0.182E-02 0.548E-05
CGA:  33    -0.808756022247E+03   -0.75310E-04   -0.75318E-04  2208   0.108E-02 0.634E-07
CGA:  34    -0.808756074337E+03   -0.52090E-04   -0.52095E-04  2208   0.844E-03 0.124E-05
CGA:  35    -0.808756135632E+03   -0.61294E-04   -0.61239E-04  2208   0.102E-02 0.182E-05
CGA:  36    -0.808756198677E+03   -0.63045E-04   -0.63061E-04  2208   0.752E-03-0.218E-05
CGA:  37    -0.808756228409E+03   -0.29732E-04   -0.29696E-04  2208   0.610E-03-0.292E-05
CGA:  38    -0.808756267987E+03   -0.39579E-04   -0.39639E-04  2208   0.485E-03-0.521E-05
CGA:  39    -0.808756312375E+03   -0.44388E-04   -0.44735E-04  2208   0.525E-03-0.904E-05
CGA:  40    -0.808756348788E+03   -0.36413E-04   -0.36530E-04  2208   0.334E-03-0.753E-05
CGA:  41    -0.808756370929E+03   -0.22141E-04   -0.22196E-04  2208   0.285E-03-0.491E-05
CGA:  42    -0.808756387929E+03   -0.17000E-04   -0.17013E-04  2208   0.435E-03-0.285E-05
CGA:  43    -0.808756414278E+03   -0.26348E-04   -0.26362E-04  2208   0.319E-03-0.283E-05
CGA:  44    -0.808756432641E+03   -0.18363E-04   -0.18362E-04  2208   0.228E-03 0.475E-06
CGA:  45    -0.808756440553E+03   -0.79122E-05   -0.79482E-05  2208   0.133E-03 0.128E-05
CGA:  46    -0.808756454297E+03   -0.13744E-04   -0.13473E-04  2208   0.180E-03 0.565E-05
CGA:  47    -0.808756468351E+03   -0.14054E-04   -0.13959E-04  2208   0.905E-04 0.532E-05
CGA:  48    -0.808756474568E+03   -0.62176E-05   -0.62149E-05  2208   0.560E-04 0.520E-08
  12 F= -.80875647E+03 E0= -.80871772E+03  d E =-.214747E-01  mag=    66.0000
       N       E                     dE             d eps       ncg     rms          ort
SDA:   1    -0.803911446707E+03    0.48450E+01    0.00000E+00  2208   0.198E+02 0.000E+00
CGA:   2    -0.805337441175E+03   -0.14260E+01   -0.14450E+01  2208   0.411E+02-0.934E+00
CGA:   3    -0.806916697059E+03   -0.15793E+01   -0.15855E+01  2208   0.142E+02 0.718E-01
CGA:   4    -0.807481225363E+03   -0.56453E+00   -0.57555E+00  2208   0.789E+01-0.305E-01
CGA:   5    -0.808026933048E+03   -0.54571E+00   -0.55040E+00  2208   0.105E+02-0.286E+00
CGA:   6    -0.808434871365E+03   -0.40794E+00   -0.39864E+00  2208   0.506E+01 0.119E-01
CGA:   7    -0.808610419755E+03   -0.17555E+00   -0.17815E+00  2208   0.164E+01-0.244E-01
CGA:   8    -0.808661898620E+03   -0.51479E-01   -0.50691E-01  2208   0.722E+00 0.108E-01
CGA:   9    -0.808707858964E+03   -0.45960E-01   -0.46000E-01  2208   0.687E+00-0.328E-02
CGA:  10    -0.808745120277E+03   -0.37261E-01   -0.37280E-01  2208   0.497E+00 0.496E-02
CGA:  11    -0.808759068147E+03   -0.13948E-01   -0.14024E-01  2208   0.143E+00-0.126E-02
CGA:  12    -0.808765822846E+03   -0.67547E-02   -0.67519E-02  2208   0.697E-01-0.133E-03
CGA:  13    -0.808770976527E+03   -0.51537E-02   -0.51442E-02  2208   0.816E-01 0.377E-03
CGA:  14    -0.808774668535E+03   -0.36920E-02   -0.36940E-02  2208   0.656E-01 0.684E-04
CGA:  15    -0.808777326160E+03   -0.26576E-02   -0.26637E-02  2208   0.215E-01 0.938E-04
CGA:  16    -0.808778448474E+03   -0.11223E-02   -0.11226E-02  2208   0.195E-01 0.577E-04
CGA:  17    -0.808779322876E+03   -0.87440E-03   -0.87426E-03  2208   0.125E-01-0.182E-05
CGA:  18    -0.808780410490E+03   -0.10876E-02   -0.10854E-02  2208   0.162E-01 0.587E-04
CGA:  19    -0.808781237791E+03   -0.82730E-03   -0.82776E-03  2208   0.118E-01 0.470E-04
CGA:  20    -0.808781610668E+03   -0.37288E-03   -0.37359E-03  2208   0.421E-02-0.502E-05
CGA:  21    -0.808781992809E+03   -0.38214E-03   -0.38186E-03  2208   0.577E-02 0.664E-05
CGA:  22    -0.808782443648E+03   -0.45084E-03   -0.45023E-03  2208   0.590E-02 0.226E-04
CGA:  23    -0.808782672177E+03   -0.22853E-03   -0.22884E-03  2208   0.259E-02 0.269E-05
CGA:  24    -0.808782776314E+03   -0.10414E-03   -0.10412E-03  2208   0.155E-02-0.148E-05
CGA:  25    -0.808782920088E+03   -0.14377E-03   -0.14388E-03  2208   0.278E-02-0.349E-05
CGA:  26    -0.808783036491E+03   -0.11640E-03   -0.11633E-03  2208   0.124E-02-0.446E-05
CGA:  27    -0.808783103200E+03   -0.66709E-04   -0.66707E-04  2208   0.620E-03-0.179E-05
CGA:  28    -0.808783152364E+03   -0.49163E-04   -0.49116E-04  2208   0.784E-03 0.146E-05
CGA:  29    -0.808783202138E+03   -0.49774E-04   -0.49761E-04  2208   0.102E-02 0.202E-05
CGA:  30    -0.808783240516E+03   -0.38377E-04   -0.38412E-04  2208   0.293E-03 0.151E-05
CGA:  31    -0.808783262119E+03   -0.21604E-04   -0.21583E-04  2208   0.295E-03 0.884E-06
SDA:  32    -0.808783281359E+03   -0.19240E-04   -0.19249E-04  2208   0.379E-03-0.140E-05
CGA:  33    -0.808783291080E+03   -0.97209E-05   -0.97044E-05  2208   0.113E-03-0.727E-06
  13 F= -.80878329E+03 E0= -.80874656E+03  d E =-.268165E-01  mag=    66.0000
       N       E                     dE             d eps       ncg     rms          ort
SDA:   1    -0.807418336400E+03    0.13649E+01    0.00000E+00  2208   0.552E+01 0.000E+00
CGA:   2    -0.807891337384E+03   -0.47300E+00   -0.46383E+00  2208   0.783E+01 0.282E+00
CGA:   3    -0.808321364511E+03   -0.43003E+00   -0.42832E+00  2208   0.301E+01-0.941E-01
CGA:   4    -0.808448754203E+03   -0.12739E+00   -0.12690E+00  2208   0.243E+01-0.261E-02
CGA:   5    -0.808637656939E+03   -0.18890E+00   -0.18823E+00  2208   0.192E+01 0.261E-01
CGA:   6    -0.808725338720E+03   -0.87682E-01   -0.87428E-01  2208   0.919E+00-0.349E-02
CGA:   7    -0.808750743003E+03   -0.25404E-01   -0.25289E-01  2208   0.236E+00 0.249E-02
CGA:   8    -0.808766878572E+03   -0.16136E-01   -0.16128E-01  2208   0.210E+00 0.467E-03
CGA:   9    -0.808781909184E+03   -0.15031E-01   -0.15040E-01  2208   0.650E-01-0.457E-03
CGA:  10    -0.808785027775E+03   -0.31186E-02   -0.31217E-02  2208   0.410E-01 0.105E-03
CGA:  11    -0.808786906344E+03   -0.18786E-02   -0.18788E-02  2208   0.332E-01 0.257E-04
CGA:  12    -0.808788559070E+03   -0.16527E-02   -0.16519E-02  2208   0.209E-01-0.420E-04
CGA:  13    -0.808789715402E+03   -0.11563E-02   -0.11564E-02  2208   0.113E-01 0.280E-04
CGA:  14    -0.808790155863E+03   -0.44046E-03   -0.44063E-03  2208   0.647E-02 0.396E-05
CGA:  15    -0.808790547893E+03   -0.39203E-03   -0.39207E-03  2208   0.460E-02-0.226E-05
CGA:  16    -0.808790936571E+03   -0.38868E-03   -0.38823E-03  2208   0.390E-02 0.146E-04
CGA:  17    -0.808791131171E+03   -0.19460E-03   -0.19457E-03  2208   0.338E-02 0.832E-06
CGA:  18    -0.808791259483E+03   -0.12831E-03   -0.12834E-03  2208   0.161E-02 0.332E-05
CGA:  19    -0.808791378919E+03   -0.11944E-03   -0.11936E-03  2208   0.189E-02 0.369E-05
CGA:  20    -0.808791538431E+03   -0.15951E-03   -0.15953E-03  2208   0.124E-02-0.497E-06
CGA:  21    -0.808791591337E+03   -0.52906E-04   -0.52902E-04  2208   0.814E-03-0.137E-06
CGA:  22    -0.808791633961E+03   -0.42624E-04   -0.42621E-04  2208   0.684E-03-0.407E-06
CGA:  23    -0.808791691971E+03   -0.58009E-04   -0.58072E-04  2208   0.823E-03-0.266E-05
CGA:  24    -0.808791720938E+03   -0.28967E-04   -0.28962E-04  2208   0.368E-03-0.562E-06
CGA:  25    -0.808791738582E+03   -0.17644E-04   -0.17644E-04  2208   0.232E-03-0.136E-06
CGA:  26    -0.808791761098E+03   -0.22516E-04   -0.22524E-04  2208   0.248E-03-0.307E-06
CGA:  27    -0.808791778129E+03   -0.17031E-04   -0.17032E-04  2208   0.201E-03-0.184E-06
CGA:  28    -0.808791786466E+03   -0.83363E-05   -0.83281E-05  2208   0.135E-03-0.518E-06
  14 F= -.80879179E+03 E0= -.80875351E+03  d E =-.849539E-02  mag=    66.0000
       N       E                     dE             d eps       ncg     rms          ort
SDA:   1    -0.807559083579E+03    0.12327E+01    0.00000E+00  2208   0.449E+01 0.000E+00
CGA:   2    -0.808160833845E+03   -0.60175E+00   -0.60635E+00  2208   0.763E+01-0.662E-01
CGA:   3    -0.808408054641E+03   -0.24722E+00   -0.25674E+00  2208   0.331E+01-0.105E+00
CGA:   4    -0.808521988957E+03   -0.11393E+00   -0.11639E+00  2208   0.155E+01-0.186E-01
CGA:   5    -0.808662988338E+03   -0.14100E+00   -0.14224E+00  2208   0.172E+01-0.318E-01
CGA:   6    -0.808739668709E+03   -0.76680E-01   -0.76879E-01  2208   0.403E+00 0.254E-02
CGA:   7    -0.808755672811E+03   -0.16004E-01   -0.16057E-01  2208   0.283E+00 0.906E-04
CGA:   8    -0.808770127106E+03   -0.14454E-01   -0.14457E-01  2208   0.218E+00 0.138E-03
CGA:   9    -0.808782596363E+03   -0.12469E-01   -0.12471E-01  2208   0.119E+00 0.491E-03
CGA:  10    -0.808786774380E+03   -0.41780E-02   -0.41856E-02  2208   0.416E-01-0.210E-04
CGA:  11    -0.808788502443E+03   -0.17281E-02   -0.17267E-02  2208   0.212E-01-0.178E-05
CGA:  12    -0.808790430983E+03   -0.19285E-02   -0.19282E-02  2208   0.222E-01 0.138E-04
CGA:  13    -0.808791539548E+03   -0.11086E-02   -0.11087E-02  2208   0.173E-01 0.965E-05
CGA:  14    -0.808792164468E+03   -0.62492E-03   -0.62469E-03  2208   0.717E-02 0.528E-05
CGA:  15    -0.808792564405E+03   -0.39994E-03   -0.39995E-03  2208   0.470E-02 0.892E-05
CGA:  16    -0.808793060019E+03   -0.49561E-03   -0.49524E-03  2208   0.726E-02 0.810E-05
CGA:  17    -0.808793389722E+03   -0.32970E-03   -0.32978E-03  2208   0.533E-02 0.470E-05
CGA:  18    -0.808793660202E+03   -0.27048E-03   -0.27053E-03  2208   0.272E-02 0.345E-05
CGA:  19    -0.808793810006E+03   -0.14980E-03   -0.14982E-03  2208   0.302E-02 0.347E-05
CGA:  20    -0.808793995145E+03   -0.18514E-03   -0.18514E-03  2208   0.339E-02 0.483E-06
CGA:  21    -0.808794198342E+03   -0.20320E-03   -0.20320E-03  2208   0.191E-02-0.143E-05
CGA:  22    -0.808794292835E+03   -0.94492E-04   -0.94517E-04  2208   0.848E-03 0.176E-05
CGA:  23    -0.808794347714E+03   -0.54880E-04   -0.54868E-04  2208   0.107E-02 0.181E-05
CGA:  24    -0.808794400212E+03   -0.52497E-04   -0.52505E-04  2208   0.981E-03 0.141E-05
CGA:  25    -0.808794462110E+03   -0.61898E-04   -0.61886E-04  2208   0.389E-03 0.207E-05
CGA:  26    -0.808794481559E+03   -0.19449E-04   -0.19451E-04  2208   0.328E-03 0.162E-06
CGA:  27    -0.808794499992E+03   -0.18432E-04   -0.18432E-04  2208   0.324E-03-0.249E-06
CGA:  28    -0.808794525231E+03   -0.25239E-04   -0.25267E-04  2208   0.306E-03-0.141E-05
CGA:  29    -0.808794539478E+03   -0.14247E-04   -0.14239E-04  2208   0.196E-03-0.770E-06
CGA:  30    -0.808794546528E+03   -0.70497E-05   -0.70382E-05  2208   0.916E-04-0.459E-06
  15 F= -.80879455E+03 E0= -.80875663E+03  d E =-.276006E-02  mag=    66.0000
       N       E                     dE             d eps       ncg     rms          ort
SDA:   1    -0.798128292727E+03    0.10666E+02    0.00000E+00  2208   0.436E+02 0.000E+00
CGA:   2    -0.801075127763E+03   -0.29468E+01   -0.29859E+01  2208   0.856E+02-0.246E+01
CGA:   3    -0.804722134095E+03   -0.36470E+01   -0.36303E+01  2208   0.377E+02-0.141E+00
CGA:   4    -0.806219771414E+03   -0.14976E+01   -0.14634E+01  2208   0.146E+02 0.616E+00
CGA:   5    -0.806982137097E+03   -0.76237E+00   -0.75614E+00  2208   0.193E+02-0.323E+00
CGA:   6    -0.807934577805E+03   -0.95244E+00   -0.94979E+00  2208   0.129E+02-0.131E+00
CGA:   7    -0.808328771968E+03   -0.39419E+00   -0.38836E+00  2208   0.497E+01 0.748E-01
CGA:   8    -0.808482243114E+03   -0.15347E+00   -0.15289E+00  2208   0.177E+01 0.162E-01
CGA:   9    -0.808576832027E+03   -0.94589E-01   -0.94618E-01  2208   0.206E+01 0.136E-01
CGA:  10    -0.808651105695E+03   -0.74274E-01   -0.74985E-01  2208   0.131E+01 0.151E-02
CGA:  11    -0.808718585210E+03   -0.67480E-01   -0.67500E-01  2208   0.469E+00 0.524E-02
CGA:  12    -0.808733668997E+03   -0.15084E-01   -0.15020E-01  2208   0.277E+00 0.608E-03
CGA:  13    -0.808743848374E+03   -0.10179E-01   -0.10184E-01  2208   0.141E+00 0.559E-04
CGA:  14    -0.808755741802E+03   -0.11893E-01   -0.11835E-01  2208   0.184E+00 0.162E-02
CGA:  15    -0.808762720640E+03   -0.69788E-02   -0.69766E-02  2208   0.132E+00-0.870E-06
CGA:  16    -0.808767922897E+03   -0.52023E-02   -0.52102E-02  2208   0.542E-01 0.922E-04
CGA:  17    -0.808770882635E+03   -0.29597E-02   -0.29581E-02  2208   0.406E-01 0.329E-03
CGA:  18    -0.808772741050E+03   -0.18584E-02   -0.18591E-02  2208   0.505E-01 0.478E-04
CGA:  19    -0.808775781855E+03   -0.30408E-02   -0.30382E-02  2208   0.437E-01 0.198E-03
CGA:  20    -0.808778717735E+03   -0.29359E-02   -0.29290E-02  2208   0.341E-01 0.335E-03
CGA:  21    -0.808779723716E+03   -0.10060E-02   -0.10096E-02  2208   0.168E-01-0.302E-04
CGA:  22    -0.808780827863E+03   -0.11041E-02   -0.11036E-02  2208   0.174E-01 0.226E-04
CGA:  23    -0.808782080048E+03   -0.12522E-02   -0.12526E-02  2208   0.255E-01-0.109E-04
CGA:  24    -0.808783067876E+03   -0.98783E-03   -0.98937E-03  2208   0.858E-02 0.154E-04
CGA:  25    -0.808783426750E+03   -0.35887E-03   -0.35902E-03  2208   0.612E-02 0.825E-05
CGA:  26    -0.808783720233E+03   -0.29348E-03   -0.29355E-03  2208   0.571E-02 0.125E-04
CGA:  27    -0.808784214721E+03   -0.49449E-03   -0.49377E-03  2208   0.455E-02 0.184E-04
CGA:  28    -0.808784391099E+03   -0.17638E-03   -0.17641E-03  2208   0.313E-02 0.433E-05
CGA:  29    -0.808784514505E+03   -0.12341E-03   -0.12342E-03  2208   0.168E-02-0.483E-06
CGA:  30    -0.808784681931E+03   -0.16743E-03   -0.16776E-03  2208   0.222E-02-0.779E-05
CGA:  31    -0.808784793905E+03   -0.11197E-03   -0.11194E-03  2208   0.211E-02-0.800E-05
SDA:  32    -0.808784865944E+03   -0.72039E-04   -0.71904E-04  2208   0.693E-03-0.464E-05
CGA:  33    -0.808784895276E+03   -0.29332E-04   -0.29358E-04  2208   0.509E-03 0.129E-05
CGA:  34    -0.808784935777E+03   -0.40501E-04   -0.40441E-04  2208   0.963E-03 0.188E-05
CGA:  35    -0.808784983936E+03   -0.48159E-04   -0.48165E-04  2208   0.484E-03 0.133E-05
CGA:  36    -0.808785008453E+03   -0.24517E-04   -0.24516E-04  2208   0.190E-03-0.687E-06
CGA:  37    -0.808785022030E+03   -0.13577E-04   -0.13613E-04  2208   0.337E-03-0.225E-05
CGA:  38    -0.808785046038E+03   -0.24008E-04   -0.24091E-04  2208   0.289E-03-0.496E-05
CGA:  39    -0.808785066270E+03   -0.20232E-04   -0.20311E-04  2208   0.156E-03-0.521E-05
CGA:  40    -0.808785077703E+03   -0.11434E-04   -0.11471E-04  2208   0.116E-03-0.225E-05
CGA:  41    -0.808785089575E+03   -0.11872E-04   -0.11868E-04  2208   0.117E-03-0.142E-06
CGA:  42    -0.808785097834E+03   -0.82593E-05   -0.82440E-05  2208   0.100E-03 0.120E-05
  16 F= -.80878510E+03 E0= -.80874924E+03  d E =0.944869E-02  mag=    66.0000
       N       E                     dE             d eps       ncg     rms          ort
SDA:   1    -0.806359222595E+03    0.24259E+01    0.00000E+00  2208   0.898E+01 0.000E+00
CGA:   2    -0.807402550585E+03   -0.10433E+01   -0.10301E+01  2208   0.178E+02 0.241E+00
CGA:   3    -0.807950804148E+03   -0.54825E+00   -0.53886E+00  2208   0.436E+01 0.149E+00
CGA:   4    -0.808248086611E+03   -0.29728E+00   -0.29902E+00  2208   0.431E+01-0.134E+00
CGA:   5    -0.808572435564E+03   -0.32435E+00   -0.32327E+00  2208   0.307E+01 0.458E-01
CGA:   6    -0.808686968701E+03   -0.11453E+00   -0.11640E+00  2208   0.107E+01-0.857E-02
CGA:   7    -0.808723807591E+03   -0.36839E-01   -0.36781E-01  2208   0.395E+00 0.809E-03
CGA:   8    -0.808753971477E+03   -0.30164E-01   -0.30153E-01  2208   0.455E+00 0.552E-03
CGA:   9    -0.808773211531E+03   -0.19240E-01   -0.19178E-01  2208   0.217E+00-0.203E-03
CGA:  10    -0.808780825338E+03   -0.76138E-02   -0.76201E-02  2208   0.558E-01-0.340E-04
CGA:  11    -0.808784634367E+03   -0.38090E-02   -0.38063E-02  2208   0.460E-01 0.181E-03
CGA:  12    -0.808788011623E+03   -0.33773E-02   -0.33762E-02  2208   0.503E-01 0.578E-04
CGA:  13    -0.808789775131E+03   -0.17635E-02   -0.17611E-02  2208   0.186E-01 0.373E-04
CGA:  14    -0.808790618337E+03   -0.84321E-03   -0.84392E-03  2208   0.875E-02 0.183E-04
CGA:  15    -0.808791332003E+03   -0.71367E-03   -0.71280E-03  2208   0.115E-01 0.317E-04
CGA:  16    -0.808791895613E+03   -0.56361E-03   -0.56380E-03  2208   0.895E-02 0.141E-04
CGA:  17    -0.808792387459E+03   -0.49185E-03   -0.49190E-03  2208   0.376E-02 0.143E-04
CGA:  18    -0.808792630065E+03   -0.24261E-03   -0.24257E-03  2208   0.416E-02 0.522E-05
CGA:  19    -0.808792821086E+03   -0.19102E-03   -0.19105E-03  2208   0.377E-02 0.314E-05
CGA:  20    -0.808793112449E+03   -0.29136E-03   -0.29120E-03  2208   0.239E-02 0.630E-05
CGA:  21    -0.808793273296E+03   -0.16085E-03   -0.16087E-03  2208   0.149E-02-0.182E-05
CGA:  22    -0.808793334670E+03   -0.61374E-04   -0.61393E-04  2208   0.124E-02 0.157E-06
CGA:  23    -0.808793437215E+03   -0.10255E-03   -0.10252E-03  2208   0.140E-02 0.948E-06
CGA:  24    -0.808793509512E+03   -0.72297E-04   -0.72284E-04  2208   0.837E-03-0.116E-05
CGA:  25    -0.808793542949E+03   -0.33437E-04   -0.33417E-04  2208   0.446E-03-0.388E-06
CGA:  26    -0.808793571756E+03   -0.28807E-04   -0.28811E-04  2208   0.477E-03-0.667E-06
CGA:  27    -0.808793615953E+03   -0.44198E-04   -0.44258E-04  2208   0.413E-03-0.179E-05
CGA:  28    -0.808793633662E+03   -0.17709E-04   -0.17693E-04  2208   0.273E-03-0.919E-06
CGA:  29    -0.808793645321E+03   -0.11659E-04   -0.11653E-04  2208   0.159E-03-0.469E-06
CGA:  30    -0.808793659615E+03   -0.14294E-04   -0.14308E-04  2208   0.198E-03-0.576E-06
CGA:  31    -0.808793670727E+03   -0.11111E-04   -0.11111E-04  2208   0.160E-03-0.357E-06
SDA:  32    -0.808793677346E+03   -0.66191E-05   -0.66145E-05  2208   0.663E-04-0.355E-06
  17 F= -.80879368E+03 E0= -.80875682E+03  d E =-.857951E-02  mag=    66.0000
       N       E                     dE             d eps       ncg     rms          ort
SDA:   1    -0.808286516930E+03    0.50715E+00    0.00000E+00  2208   0.216E+01 0.000E+00
CGA:   2    -0.808433399074E+03   -0.14688E+00   -0.14726E+00  2208   0.434E+01-0.219E-01
CGA:   3    -0.808624437688E+03   -0.19104E+00   -0.19090E+00  2208   0.108E+01-0.174E-02
CGA:   4    -0.808681161368E+03   -0.56724E-01   -0.56698E-01  2208   0.676E+00-0.208E-02
CGA:   5    -0.808746889928E+03   -0.65729E-01   -0.65624E-01  2208   0.868E+00 0.241E-02
CGA:   6    -0.808775178973E+03   -0.28289E-01   -0.28451E-01  2208   0.197E+00-0.151E-02
CGA:   7    -0.808783924016E+03   -0.87450E-02   -0.87332E-02  2208   0.834E-01-0.158E-03
CGA:   8    -0.808791733399E+03   -0.78094E-02   -0.78265E-02  2208   0.708E-01-0.411E-03
CGA:   9    -0.808795228310E+03   -0.34949E-02   -0.34975E-02  2208   0.454E-01 0.105E-03
CGA:  10    -0.808796668981E+03   -0.14407E-02   -0.14432E-02  2208   0.133E-01-0.209E-04
CGA:  11    -0.808797278012E+03   -0.60903E-03   -0.60875E-03  2208   0.834E-02-0.390E-05
CGA:  12    -0.808798215004E+03   -0.93699E-03   -0.93624E-03  2208   0.667E-02 0.130E-04
CGA:  13    -0.808798522773E+03   -0.30777E-03   -0.30792E-03  2208   0.396E-02 0.288E-05
CGA:  14    -0.808798676099E+03   -0.15333E-03   -0.15325E-03  2208   0.196E-02 0.157E-05
CGA:  15    -0.808798858244E+03   -0.18215E-03   -0.18213E-03  2208   0.249E-02 0.660E-06
CGA:  16    -0.808798997685E+03   -0.13944E-03   -0.13945E-03  2208   0.284E-02 0.117E-05
CGA:  17    -0.808799115744E+03   -0.11806E-03   -0.11806E-03  2208   0.967E-03 0.337E-06
CGA:  18    -0.808799194184E+03   -0.78441E-04   -0.78400E-04  2208   0.876E-03 0.163E-05
CGA:  19    -0.808799281870E+03   -0.87686E-04   -0.87561E-04  2208   0.103E-02 0.321E-05
CGA:  20    -0.808799342614E+03   -0.60743E-04   -0.60751E-04  2208   0.949E-03 0.266E-05
CGA:  21    -0.808799372643E+03   -0.30029E-04   -0.30042E-04  2208   0.258E-03 0.668E-06
CGA:  22    -0.808799399359E+03   -0.26717E-04   -0.26773E-04  2208   0.433E-03-0.124E-05
CGA:  23    -0.808799422905E+03   -0.23546E-04   -0.23538E-04  2208   0.297E-03-0.112E-05
CGA:  24    -0.808799434682E+03   -0.11777E-04   -0.11766E-04  2208   0.123E-03-0.660E-06
CGA:  25    -0.808799442804E+03   -0.81212E-05   -0.81226E-05  2208   0.972E-04-0.387E-06
  18 F= -.80879944E+03 E0= -.80876264E+03  d E =-.576546E-02  mag=    66.0000
       N       E                     dE             d eps       ncg     rms          ort
SDA:   1    -0.808685956203E+03    0.11348E+00    0.00000E+00  2208   0.993E+00 0.000E+00
CGA:   2    -0.808709190917E+03   -0.23235E-01   -0.23307E-01  2208   0.411E+00-0.191E-02
CGA:   3    -0.808759214643E+03   -0.50024E-01   -0.50075E-01  2208   0.324E+00-0.811E-03
CGA:   4    -0.808774927236E+03   -0.15713E-01   -0.15752E-01  2208   0.130E+00 0.555E-03
CGA:   5    -0.808786224760E+03   -0.11298E-01   -0.11283E-01  2208   0.203E+00 0.482E-03
CGA:   6    -0.808793269416E+03   -0.70447E-02   -0.70308E-02  2208   0.696E-01 0.177E-03
CGA:   7    -0.808796685966E+03   -0.34166E-02   -0.34133E-02  2208   0.214E-01-0.543E-04
CGA:   8    -0.808797804062E+03   -0.11181E-02   -0.11190E-02  2208   0.127E-01 0.342E-04
CGA:   9    -0.808798522314E+03   -0.71825E-03   -0.71823E-03  2208   0.139E-01 0.192E-05
CGA:  10    -0.808799182618E+03   -0.66030E-03   -0.66032E-03  2208   0.445E-02 0.330E-05
CGA:  11    -0.808799373339E+03   -0.19072E-03   -0.19086E-03  2208   0.178E-02 0.278E-05
CGA:  12    -0.808799458879E+03   -0.85540E-04   -0.85544E-04  2208   0.169E-02 0.152E-05
CGA:  13    -0.808799562902E+03   -0.10402E-03   -0.10402E-03  2208   0.128E-02 0.205E-05
CGA:  14    -0.808799640724E+03   -0.77822E-04   -0.77819E-04  2208   0.526E-03 0.163E-05
CGA:  15    -0.808799667719E+03   -0.26995E-04   -0.26995E-04  2208   0.385E-03-0.286E-06
CGA:  16    -0.808799685952E+03   -0.18233E-04   -0.18232E-04  2208   0.382E-03-0.106E-06
CGA:  17    -0.808799714514E+03   -0.28561E-04   -0.28565E-04  2208   0.274E-03-0.118E-06
CGA:  18    -0.808799736343E+03   -0.21829E-04   -0.21830E-04  2208   0.191E-03-0.241E-06
CGA:  19    -0.808799744383E+03   -0.80396E-05   -0.80406E-05  2208   0.155E-03-0.340E-07
  19 F= -.80879974E+03 E0= -.80876325E+03  d E =-.301579E-03  mag=    66.0000
       N       E                     dE             d eps       ncg     rms          ort
SDA:   1    -0.806374910336E+03    0.24248E+01    0.00000E+00  2208   0.945E+01 0.000E+00
CGA:   2    -0.807171822325E+03   -0.79691E+00   -0.80739E+00  2208   0.208E+02-0.286E+00
CGA:   3    -0.807967493071E+03   -0.79567E+00   -0.80191E+00  2208   0.538E+01-0.310E-01
CGA:   4    -0.808234876617E+03   -0.26738E+00   -0.26917E+00  2208   0.349E+01 0.600E-01
CGA:   5    -0.808482090746E+03   -0.24721E+00   -0.24726E+00  2208   0.454E+01-0.385E-02
CGA:   6    -0.808660888077E+03   -0.17880E+00   -0.17746E+00  2208   0.131E+01 0.638E-02
CGA:   7    -0.808722372162E+03   -0.61484E-01   -0.61547E-01  2208   0.372E+00 0.137E-02
CGA:   8    -0.808750572663E+03   -0.28201E-01   -0.28284E-01  2208   0.464E+00-0.336E-02
CGA:   9    -0.808771526069E+03   -0.20953E-01   -0.21044E-01  2208   0.257E+00 0.156E-02
CGA:  10    -0.808781073760E+03   -0.95477E-02   -0.95104E-02  2208   0.796E-01 0.173E-03
CGA:  11    -0.808785648154E+03   -0.45744E-02   -0.45745E-02  2208   0.454E-01-0.296E-03
CGA:  12    -0.808787867522E+03   -0.22194E-02   -0.22217E-02  2208   0.439E-01 0.120E-03
CGA:  13    -0.808790167971E+03   -0.23004E-02   -0.23008E-02  2208   0.266E-01 0.320E-04
CGA:  14    -0.808792009641E+03   -0.18417E-02   -0.18414E-02  2208   0.121E-01 0.200E-04
CGA:  15    -0.808792754120E+03   -0.74448E-03   -0.74423E-03  2208   0.785E-02 0.344E-04
CGA:  16    -0.808793226055E+03   -0.47194E-03   -0.47191E-03  2208   0.117E-01 0.777E-05
CGA:  17    -0.808794042234E+03   -0.81618E-03   -0.81550E-03  2208   0.738E-02 0.409E-04
CGA:  18    -0.808794540532E+03   -0.49830E-03   -0.49816E-03  2208   0.330E-02 0.114E-04
CGA:  19    -0.808794798418E+03   -0.25789E-03   -0.25795E-03  2208   0.495E-02-0.154E-05
CGA:  20    -0.808795077763E+03   -0.27934E-03   -0.27936E-03  2208   0.532E-02 0.354E-05
CGA:  21    -0.808795383955E+03   -0.30619E-03   -0.30622E-03  2208   0.175E-02 0.625E-05
CGA:  22    -0.808795484752E+03   -0.10080E-03   -0.10080E-03  2208   0.148E-02 0.890E-06
CGA:  23    -0.808795563305E+03   -0.78553E-04   -0.78556E-04  2208   0.169E-02 0.223E-07
CGA:  24    -0.808795670625E+03   -0.10732E-03   -0.10733E-03  2208   0.852E-03-0.233E-05
CGA:  25    -0.808795730378E+03   -0.59753E-04   -0.59758E-04  2208   0.457E-03-0.808E-06
CGA:  26    -0.808795761012E+03   -0.30635E-04   -0.30641E-04  2208   0.667E-03-0.106E-05
CGA:  27    -0.808795793264E+03   -0.32252E-04   -0.32237E-04  2208   0.359E-03-0.114E-05
CGA:  28    -0.808795826351E+03   -0.33087E-04   -0.33088E-04  2208   0.256E-03-0.150E-06
CGA:  29    -0.808795840354E+03   -0.14003E-04   -0.14003E-04  2208   0.196E-03-0.557E-09
CGA:  30    -0.808795849365E+03   -0.90113E-05   -0.90141E-05  2208   0.172E-03 0.148E-06
CGA:  31    -0.808795862179E+03   -0.12813E-04   -0.12808E-04  2208   0.135E-03 0.319E-06
SDA:  32    -0.808795870478E+03   -0.82996E-05   -0.82988E-05  2208   0.784E-04-0.240E-06
  20 F= -.80879587E+03 E0= -.80875980E+03  d E =0.387390E-02  mag=    66.0000
       N       E                     dE             d eps       ncg     rms          ort
SDA:   1    -0.807062065936E+03    0.17338E+01    0.00000E+00  2208   0.728E+01 0.000E+00
CGA:   2    -0.807685387616E+03   -0.62332E+00   -0.60870E+00  2208   0.109E+02 0.471E+00
CGA:   3    -0.808164428301E+03   -0.47904E+00   -0.47105E+00  2208   0.492E+01 0.392E-02
CGA:   4    -0.808373908474E+03   -0.20948E+00   -0.20505E+00  2208   0.232E+01-0.141E-01
CGA:   5    -0.808583119979E+03   -0.20921E+00   -0.20812E+00  2208   0.251E+01 0.294E-01
CGA:   6    -0.808703332819E+03   -0.12021E+00   -0.11998E+00  2208   0.126E+01-0.301E-02
CGA:   7    -0.808744104563E+03   -0.40772E-01   -0.40948E-01  2208   0.314E+00-0.198E-02
CGA:   8    -0.808766409292E+03   -0.22305E-01   -0.22320E-01  2208   0.260E+00-0.739E-03
CGA:   9    -0.808784882151E+03   -0.18473E-01   -0.18467E-01  2208   0.123E+00 0.366E-03
CGA:  10    -0.808789517910E+03   -0.46358E-02   -0.46494E-02  2208   0.604E-01-0.168E-04
CGA:  11    -0.808792152847E+03   -0.26349E-02   -0.26418E-02  2208   0.327E-01 0.934E-04
CGA:  12    -0.808794924748E+03   -0.27719E-02   -0.27737E-02  2208   0.305E-01-0.490E-04
CGA:  13    -0.808796100869E+03   -0.11761E-02   -0.11766E-02  2208   0.177E-01 0.939E-05
CGA:  14    -0.808796894763E+03   -0.79389E-03   -0.79464E-03  2208   0.828E-02 0.175E-04
CGA:  15    -0.808797485558E+03   -0.59079E-03   -0.59092E-03  2208   0.703E-02-0.396E-05
CGA:  16    -0.808798026537E+03   -0.54098E-03   -0.54048E-03  2208   0.776E-02 0.230E-04
CGA:  17    -0.808798362663E+03   -0.33613E-03   -0.33600E-03  2208   0.453E-02 0.341E-05
CGA:  18    -0.808798630463E+03   -0.26780E-03   -0.26780E-03  2208   0.278E-02 0.346E-05
CGA:  19    -0.808798895293E+03   -0.26483E-03   -0.26454E-03  2208   0.304E-02 0.770E-05
CGA:  20    -0.808799107641E+03   -0.21235E-03   -0.21233E-03  2208   0.289E-02 0.205E-05
CGA:  21    -0.808799219434E+03   -0.11179E-03   -0.11172E-03  2208   0.122E-02 0.690E-06
CGA:  22    -0.808799301281E+03   -0.81847E-04   -0.81831E-04  2208   0.115E-02 0.127E-05
CGA:  23    -0.808799411082E+03   -0.10980E-03   -0.10986E-03  2208   0.780E-03-0.126E-05
CGA:  24    -0.808799447296E+03   -0.36214E-04   -0.36217E-04  2208   0.576E-03-0.556E-07
CGA:  25    -0.808799475694E+03   -0.28398E-04   -0.28392E-04  2208   0.378E-03-0.416E-06
CGA:  26    -0.808799507532E+03   -0.31838E-04   -0.31870E-04  2208   0.427E-03-0.132E-05
CGA:  27    -0.808799530600E+03   -0.23068E-04   -0.23066E-04  2208   0.328E-03-0.454E-06
CGA:  28    -0.808799543177E+03   -0.12577E-04   -0.12569E-04  2208   0.168E-03-0.319E-06
CGA:  29    -0.808799555354E+03   -0.12176E-04   -0.12185E-04  2208   0.148E-03-0.654E-06
CGA:  30    -0.808799566671E+03   -0.11317E-04   -0.11321E-04  2208   0.157E-03-0.281E-06
CGA:  31    -0.808799573523E+03   -0.68520E-05   -0.68535E-05  2208   0.960E-04 0.181E-07
  21 F= -.80879957E+03 E0= -.80876232E+03  d E =-.370304E-02  mag=    66.0000
       N       E                     dE             d eps       ncg     rms          ort
SDA:   1    -0.808519404983E+03    0.28016E+00    0.00000E+00  2208   0.110E+01 0.000E+00
CGA:   2    -0.808651927135E+03   -0.13252E+00   -0.13229E+00  2208   0.165E+01 0.420E-02
CGA:   3    -0.808706282872E+03   -0.54356E-01   -0.55009E-01  2208   0.630E+00-0.890E-02
CGA:   4    -0.808734374751E+03   -0.28092E-01   -0.28203E-01  2208   0.448E+00 0.973E-03
CGA:   5    -0.808773441660E+03   -0.39067E-01   -0.39301E-01  2208   0.407E+00-0.691E-02
CGA:   6    -0.808790095574E+03   -0.16654E-01   -0.16915E-01  2208   0.131E+00 0.414E-03
CGA:   7    -0.808794223414E+03   -0.41278E-02   -0.41423E-02  2208   0.497E-01-0.171E-03
CGA:   8    -0.808797914942E+03   -0.36915E-02   -0.36924E-02  2208   0.375E-01-0.329E-04
CGA:   9    -0.808800504714E+03   -0.25898E-02   -0.25900E-02  2208   0.168E-01-0.105E-04
CGA:  10    -0.808801237725E+03   -0.73301E-03   -0.73341E-03  2208   0.819E-02 0.718E-05
CGA:  11    -0.808801534399E+03   -0.29667E-03   -0.29638E-03  2208   0.458E-02 0.675E-05
CGA:  12    -0.808801947263E+03   -0.41286E-03   -0.41284E-03  2208   0.439E-02 0.667E-06
CGA:  13    -0.808802145831E+03   -0.19857E-03   -0.19862E-03  2208   0.254E-02 0.264E-05
CGA:  14    -0.808802236434E+03   -0.90603E-04   -0.90611E-04  2208   0.947E-03 0.109E-05
CGA:  15    -0.808802314666E+03   -0.78232E-04   -0.78216E-04  2208   0.866E-03 0.735E-06
CGA:  16    -0.808802389428E+03   -0.74762E-04   -0.74748E-04  2208   0.872E-03 0.604E-06
CGA:  17    -0.808802430532E+03   -0.41104E-04   -0.41113E-04  2208   0.634E-03 0.724E-06
CGA:  18    -0.808802457188E+03   -0.26656E-04   -0.26656E-04  2208   0.282E-03 0.192E-07
CGA:  19    -0.808802484154E+03   -0.26966E-04   -0.26989E-04  2208   0.442E-03-0.572E-06
CGA:  20    -0.808802506262E+03   -0.22107E-04   -0.22099E-04  2208   0.402E-03-0.588E-06
CGA:  21    -0.808802525442E+03   -0.19180E-04   -0.19174E-04  2208   0.149E-03-0.259E-06
CGA:  22    -0.808802535587E+03   -0.10145E-04   -0.10143E-04  2208   0.112E-03 0.319E-06
CGA:  23    -0.808802544255E+03   -0.86678E-05   -0.86632E-05  2208   0.143E-03 0.300E-06
  22 F= -.80880254E+03 E0= -.80876514E+03  d E =-.297073E-02  mag=    66.0000
       N       E                     dE             d eps       ncg     rms          ort
SDA:   1    -0.808742317022E+03    0.60219E-01    0.00000E+00  2208   0.531E+00 0.000E+00
CGA:   2    -0.808756356440E+03   -0.14039E-01   -0.14136E-01  2208   0.243E+00-0.225E-02
CGA:   3    -0.808776508020E+03   -0.20152E-01   -0.20187E-01  2208   0.266E+00-0.110E-02
CGA:   4    -0.808788250652E+03   -0.11743E-01   -0.11766E-01  2208   0.882E-01 0.266E-03
CGA:   5    -0.808792809605E+03   -0.45590E-02   -0.45577E-02  2208   0.909E-01-0.871E-05
CGA:   6    -0.808797637140E+03   -0.48275E-02   -0.48231E-02  2208   0.628E-01-0.259E-03
CGA:   7    -0.808801215749E+03   -0.35786E-02   -0.35790E-02  2208   0.131E-01 0.106E-03
CGA:   8    -0.808801867840E+03   -0.65209E-03   -0.65198E-03  2208   0.790E-02-0.166E-05
CGA:   9    -0.808802272919E+03   -0.40508E-03   -0.40509E-03  2208   0.783E-02 0.268E-05
CGA:  10    -0.808802641500E+03   -0.36858E-03   -0.36857E-03  2208   0.322E-02 0.119E-06
CGA:  11    -0.808802825765E+03   -0.18427E-03   -0.18426E-03  2208   0.123E-02-0.142E-05
CGA:  12    -0.808802871713E+03   -0.45948E-04   -0.45966E-04  2208   0.850E-03 0.138E-06
CGA:  13    -0.808802929313E+03   -0.57600E-04   -0.57598E-04  2208   0.623E-03 0.404E-06
CGA:  14    -0.808802974286E+03   -0.44973E-04   -0.44969E-04  2208   0.398E-03 0.254E-06
CGA:  15    -0.808802992934E+03   -0.18648E-04   -0.18652E-04  2208   0.264E-03 0.453E-06
CGA:  16    -0.808803003455E+03   -0.10521E-04   -0.10523E-04  2208   0.154E-03 0.361E-07
CGA:  17    -0.808803016313E+03   -0.12858E-04   -0.12861E-04  2208   0.170E-03-0.895E-07
CGA:  18    -0.808803029071E+03   -0.12758E-04   -0.12756E-04  2208   0.185E-03 0.167E-06
CGA:  19    -0.808803035561E+03   -0.64895E-05   -0.64908E-05  2208   0.634E-04 0.257E-07
  23 F= -.80880304E+03 E0= -.80876557E+03  d E =-.491306E-03  mag=    66.0000
