       N       E                     dE             d eps       ncg     rms          ort
DAV:   1     0.965461514451E+04    0.96546E+04   -0.32127E+05  3248   0.180E+03
DAV:   2     0.102954584143E+04   -0.86251E+04   -0.81959E+04  3248   0.554E+02
DAV:   3    -0.494765693360E+03   -0.15243E+04   -0.14141E+04  3248   0.227E+02
DAV:   4    -0.690295457091E+03   -0.19553E+03   -0.18838E+03  3248   0.925E+01
DAV:   5    -0.700455241238E+03   -0.10160E+02   -0.98628E+01  3248   0.256E+01
SDA:   6    -0.198182025419E+03    0.50227E+03   -0.98628E+01  3248   0.290E+04 0.000E+00
CGA:   7    -0.499392150372E+03   -0.30121E+03   -0.33906E+03  3248   0.563E+03 0.300E+02
CGA:   8    -0.515603330704E+03   -0.16211E+02   -0.50257E+02  3248   0.783E+03-0.206E+03
CGA:   9    -0.526477756962E+03   -0.10874E+02   -0.22588E+02  3248   0.588E+03-0.156E+03
CGA:  10    -0.526027408240E+03    0.45035E+00   -0.30101E+02  3248   0.389E+03-0.187E+03
CGA:  11    -0.531511800886E+03   -0.54844E+01   -0.19457E+02  3248   0.385E+03-0.164E+03
CGA:  12    -0.539119766882E+03   -0.76080E+01   -0.16057E+02  3248   0.322E+03 0.843E+01
CGA:  13    -0.544842211776E+03   -0.57224E+01   -0.24854E+02  3248   0.353E+03-0.173E+02
CGA:  14    -0.538053932496E+03    0.67883E+01   -0.18619E+02  3248   0.316E+03-0.163E+03
CGA:  15    -0.550752866421E+03   -0.12699E+02   -0.85436E+01  3248   0.140E+03-0.126E+03
CGA:  16    -0.551259577184E+03   -0.50671E+00   -0.56430E+01  3248   0.117E+03-0.441E+01
CGA:  17    -0.555152459264E+03   -0.38929E+01   -0.71844E+01  3248   0.133E+03-0.422E+02
CGA:  18    -0.560780750119E+03   -0.56283E+01   -0.44954E+01  3248   0.516E+02-0.319E+01
CGA:  19    -0.562365866321E+03   -0.15851E+01   -0.21060E+01  3248   0.285E+02-0.762E+01
CGA:  20    -0.563169188090E+03   -0.80332E+00   -0.11235E+01  3248   0.396E+02-0.864E+01
CGA:  21    -0.564443916807E+03   -0.12747E+01   -0.16748E+01  3248   0.477E+02-0.253E+01
CGA:  22    -0.566104770814E+03   -0.16609E+01   -0.14628E+01  3248   0.154E+02 0.291E+01
CGA:  23    -0.566553937796E+03   -0.44917E+00   -0.61753E+00  3248   0.203E+02-0.467E+01
CGA:  24    -0.566986741786E+03   -0.43280E+00   -0.48883E+00  3248   0.198E+02-0.185E+01
CGA:  25    -0.567382816638E+03   -0.39607E+00   -0.79968E+00  3248   0.219E+02-0.488E+01
CGA:  26    -0.567943121690E+03   -0.56031E+00   -0.51445E+00  3248   0.851E+01-0.378E+00
CGA:  27    -0.568176247522E+03   -0.23313E+00   -0.27338E+00  3248   0.412E+01-0.736E+00
CGA:  28    -0.568299352021E+03   -0.12310E+00   -0.12103E+00  3248   0.315E+01-0.357E-01
CGA:  29    -0.568497228398E+03   -0.19788E+00   -0.21894E+00  3248   0.429E+01 0.119E+00
CGA:  30    -0.568744167784E+03   -0.24694E+00   -0.26050E+00  3248   0.261E+01-0.419E-01
CGA:  31    -0.568886762942E+03   -0.14260E+00   -0.13591E+00  3248   0.931E+00 0.434E-01
CGA:  32    -0.568940334503E+03   -0.53572E-01   -0.55229E-01  3248   0.595E+00-0.489E-02
CGA:  33    -0.568996059579E+03   -0.55725E-01   -0.55581E-01  3248   0.634E+00 0.303E-01
CGA:  34    -0.569046707995E+03   -0.50648E-01   -0.50950E-01  3248   0.268E+00 0.673E-02
CGA:  35    -0.569067571048E+03   -0.20863E-01   -0.20913E-01  3248   0.220E+00 0.152E-02
CGA:  36    -0.569093747137E+03   -0.26176E-01   -0.25999E-01  3248   0.153E+00 0.485E-02
SDA:  37    -0.569104861124E+03   -0.11114E-01   -0.11072E-01  3248   0.645E-01-0.175E-03
CGA:  38    -0.569109650925E+03   -0.47898E-02   -0.47886E-02  3248   0.418E-01-0.402E-04
CGA:  39    -0.569115929172E+03   -0.62782E-02   -0.62528E-02  3248   0.317E-01 0.363E-03
CGA:  40    -0.569120298981E+03   -0.43698E-02   -0.43547E-02  3248   0.199E-01 0.277E-03
CGA:  41    -0.569122794288E+03   -0.24953E-02   -0.24978E-02  3248   0.135E-01-0.471E-04
CGA:  42    -0.569124386268E+03   -0.15920E-02   -0.15886E-02  3248   0.695E-02 0.142E-03
CGA:  43    -0.569125649240E+03   -0.12630E-02   -0.12504E-02  3248   0.743E-02 0.154E-03
CGA:  44    -0.569126629960E+03   -0.98072E-03   -0.98071E-03  3248   0.294E-02 0.258E-04
CGA:  45    -0.569127189213E+03   -0.55925E-03   -0.55760E-03  3248   0.423E-02 0.179E-04
CGA:  46    -0.569127581342E+03   -0.39213E-03   -0.39177E-03  3248   0.188E-02-0.181E-04
CGA:  47    -0.569127809395E+03   -0.22805E-03   -0.22847E-03  3248   0.135E-02-0.285E-04
CGA:  48    -0.569128049236E+03   -0.23984E-03   -0.24361E-03  3248   0.175E-02-0.508E-04
CGA:  49    -0.569128235448E+03   -0.18621E-03   -0.18619E-03  3248   0.749E-03-0.515E-04
CGA:  50    -0.569128422334E+03   -0.18689E-03   -0.19336E-03  3248   0.942E-03-0.421E-04
CGA:  51    -0.569128508498E+03   -0.86165E-04   -0.85838E-04  3248   0.694E-03-0.138E-04
CGA:  52    -0.569128598551E+03   -0.90053E-04   -0.90197E-04  3248   0.444E-03-0.926E-05
CGA:  53    -0.569128645811E+03   -0.47259E-04   -0.47236E-04  3248   0.248E-03-0.107E-05
CGA:  54    -0.569128684023E+03   -0.38212E-04   -0.38036E-04  3248   0.193E-03 0.485E-05
CGA:  55    -0.569128706044E+03   -0.22022E-04   -0.22055E-04  3248   0.110E-03 0.476E-05
CGA:  56    -0.569128724330E+03   -0.18286E-04   -0.18017E-04  3248   0.751E-04 0.660E-05
CGA:  57    -0.569128738743E+03   -0.14413E-04   -0.14056E-04  3248   0.430E-04 0.645E-05
CGA:  58    -0.569128747390E+03   -0.86471E-05   -0.84178E-05  3248   0.648E-04 0.402E-05
   1 F= -.56912875E+03 E0= -.56911579E+03  d E =-.569129E+03  mag=    70.0000
       N       E                     dE             d eps       ncg     rms          ort
SDA:   1    -0.569131657518E+03   -0.29188E-02    0.00000E+00  3248   0.156E-01 0.000E+00
CGA:   2    -0.569132632121E+03   -0.97460E-03   -0.97238E-03  3248   0.890E-02 0.167E-04
CGA:   3    -0.569133996063E+03   -0.13639E-02   -0.13641E-02  3248   0.371E-02-0.341E-05
CGA:   4    -0.569134415034E+03   -0.41897E-03   -0.41891E-03  3248   0.164E-02-0.891E-05
CGA:   5    -0.569134575863E+03   -0.16083E-03   -0.16052E-03  3248   0.808E-03-0.105E-04
CGA:   6    -0.569134667685E+03   -0.91823E-04   -0.91774E-04  3248   0.202E-03-0.633E-05
CGA:   7    -0.569134694135E+03   -0.26450E-04   -0.26433E-04  3248   0.116E-03 0.159E-05
CGA:   8    -0.569134702668E+03   -0.85331E-05   -0.86538E-05  3248   0.380E-04 0.254E-05
   2 F= -.56913470E+03 E0= -.56912178E+03  d E =-.595528E-02  mag=    70.0000
       N       E                     dE             d eps       ncg     rms          ort
SDA:   1    -0.549983775057E+03    0.19151E+02    0.00000E+00  3248   0.640E+02 0.000E+00
CGA:   2    -0.558621676200E+03   -0.86379E+01   -0.87051E+01  3248   0.677E+02-0.246E+01
CGA:   3    -0.565407331110E+03   -0.67857E+01   -0.67805E+01  3248   0.199E+02 0.358E+00
CGA:   4    -0.567707330497E+03   -0.23000E+01   -0.22962E+01  3248   0.104E+02-0.371E+00
CGA:   5    -0.568595221384E+03   -0.88789E+00   -0.90883E+00  3248   0.522E+01 0.317E-01
CGA:   6    -0.569143531159E+03   -0.54831E+00   -0.54676E+00  3248   0.124E+01-0.461E-01
CGA:   7    -0.569301617484E+03   -0.15809E+00   -0.15782E+00  3248   0.790E+00 0.137E-01
CGA:   8    -0.569361835584E+03   -0.60218E-01   -0.61222E-01  3248   0.184E+00 0.173E-03
CGA:   9    -0.569390689554E+03   -0.28854E-01   -0.28765E-01  3248   0.133E+00 0.166E-02
CGA:  10    -0.569404658842E+03   -0.13969E-01   -0.14023E-01  3248   0.699E-01 0.161E-02
CGA:  11    -0.569412477164E+03   -0.78183E-02   -0.78158E-02  3248   0.320E-01-0.147E-03
CGA:  12    -0.569416331123E+03   -0.38540E-02   -0.38519E-02  3248   0.205E-01 0.260E-03
CGA:  13    -0.569418808086E+03   -0.24770E-02   -0.24767E-02  3248   0.124E-01 0.184E-04
CGA:  14    -0.569420206004E+03   -0.13979E-02   -0.13976E-02  3248   0.660E-02-0.756E-04
CGA:  15    -0.569420939187E+03   -0.73318E-03   -0.73343E-03  3248   0.412E-02 0.112E-04
CGA:  16    -0.569421495166E+03   -0.55598E-03   -0.55563E-03  3248   0.189E-02 0.174E-04
CGA:  17    -0.569421790739E+03   -0.29557E-03   -0.29403E-03  3248   0.142E-02 0.393E-04
CGA:  18    -0.569421929943E+03   -0.13920E-03   -0.13984E-03  3248   0.714E-03 0.256E-04
CGA:  19    -0.569422039682E+03   -0.10974E-03   -0.10909E-03  3248   0.747E-03 0.201E-04
CGA:  20    -0.569422132716E+03   -0.93034E-04   -0.93019E-04  3248   0.346E-03 0.101E-04
CGA:  21    -0.569422205712E+03   -0.72996E-04   -0.73221E-04  3248   0.380E-03-0.258E-05
CGA:  22    -0.569422250251E+03   -0.44539E-04   -0.44489E-04  3248   0.280E-03-0.748E-05
CGA:  23    -0.569422289529E+03   -0.39278E-04   -0.39469E-04  3248   0.256E-03-0.972E-05
CGA:  24    -0.569422320350E+03   -0.30821E-04   -0.30820E-04  3248   0.135E-03-0.712E-05
CGA:  25    -0.569422338546E+03   -0.18196E-04   -0.18238E-04  3248   0.877E-04-0.299E-05
CGA:  26    -0.569422350495E+03   -0.11949E-04   -0.11944E-04  3248   0.673E-04 0.379E-06
CGA:  27    -0.569422357999E+03   -0.75042E-05   -0.75255E-05  3248   0.374E-04 0.146E-05
   3 F= -.56942236E+03 E0= -.56941068E+03  d E =-.287655E+00  mag=    70.0000
       N       E                     dE             d eps       ncg     rms          ort
SDA:   1    -0.561284767408E+03    0.81376E+01    0.00000E+00  3248   0.267E+02 0.000E+00
CGA:   2    -0.565045816688E+03   -0.37610E+01   -0.37463E+01  3248   0.237E+02 0.538E+00
CGA:   3    -0.567919653199E+03   -0.28738E+01   -0.28576E+01  3248   0.835E+01-0.776E+00
CGA:   4    -0.568938556153E+03   -0.10189E+01   -0.10188E+01  3248   0.336E+01-0.159E+00
CGA:   5    -0.569282840596E+03   -0.34428E+00   -0.34631E+00  3248   0.146E+01 0.305E-01
CGA:   6    -0.569424314337E+03   -0.14147E+00   -0.14056E+00  3248   0.463E+00-0.645E-02
CGA:   7    -0.569484473761E+03   -0.60159E-01   -0.60106E-01  3248   0.193E+00 0.466E-02
CGA:   8    -0.569501719830E+03   -0.17246E-01   -0.17169E-01  3248   0.729E-01-0.205E-03
CGA:   9    -0.569512181139E+03   -0.10461E-01   -0.10451E-01  3248   0.451E-01 0.362E-03
CGA:  10    -0.569516571692E+03   -0.43906E-02   -0.44028E-02  3248   0.204E-01 0.130E-03
CGA:  11    -0.569519154118E+03   -0.25824E-02   -0.25826E-02  3248   0.107E-01-0.193E-04
CGA:  12    -0.569520442104E+03   -0.12880E-02   -0.12881E-02  3248   0.695E-02 0.827E-05
CGA:  13    -0.569521387965E+03   -0.94586E-03   -0.94626E-03  3248   0.314E-02-0.282E-04
CGA:  14    -0.569521788661E+03   -0.40070E-03   -0.40070E-03  3248   0.215E-02-0.677E-05
CGA:  15    -0.569522087563E+03   -0.29890E-03   -0.29884E-03  3248   0.117E-02 0.300E-05
CGA:  16    -0.569522218837E+03   -0.13127E-03   -0.13140E-03  3248   0.756E-03 0.100E-04
CGA:  17    -0.569522316649E+03   -0.97812E-04   -0.97742E-04  3248   0.407E-03 0.144E-04
CGA:  18    -0.569522368807E+03   -0.52157E-04   -0.52137E-04  3248   0.277E-03 0.963E-05
CGA:  19    -0.569522416679E+03   -0.47873E-04   -0.47623E-04  3248   0.208E-03 0.559E-05
CGA:  20    -0.569522444636E+03   -0.27957E-04   -0.27954E-04  3248   0.156E-03 0.415E-06
CGA:  21    -0.569522470376E+03   -0.25740E-04   -0.25858E-04  3248   0.134E-03-0.301E-05
CGA:  22    -0.569522487433E+03   -0.17057E-04   -0.17063E-04  3248   0.102E-03-0.297E-05
CGA:  23    -0.569522501768E+03   -0.14335E-04   -0.14367E-04  3248   0.738E-04-0.199E-05
CGA:  24    -0.569522510228E+03   -0.84595E-05   -0.84519E-05  3248   0.401E-04-0.648E-06
   4 F= -.56952251E+03 E0= -.56951117E+03  d E =-.100152E+00  mag=    70.0000
       N       E                     dE             d eps       ncg     rms          ort
SDA:   1    -0.546287341042E+03    0.23235E+02    0.00000E+00  3248   0.782E+02 0.000E+00
CGA:   2    -0.557092731899E+03   -0.10805E+02   -0.10829E+02  3248   0.705E+02-0.193E+01
CGA:   3    -0.564293036500E+03   -0.72003E+01   -0.71930E+01  3248   0.267E+02-0.502E+00
CGA:   4    -0.567802833469E+03   -0.35098E+01   -0.35122E+01  3248   0.884E+01-0.343E+00
CGA:   5    -0.568958464366E+03   -0.11556E+01   -0.11552E+01  3248   0.358E+01 0.757E-01
CGA:   6    -0.569278643816E+03   -0.32018E+00   -0.31969E+00  3248   0.166E+01-0.911E-02
CGA:   7    -0.569481348931E+03   -0.20271E+00   -0.20302E+00  3248   0.485E+00 0.296E-01
CGA:   8    -0.569526574764E+03   -0.45226E-01   -0.45473E-01  3248   0.268E+00 0.421E-03
CGA:   9    -0.569563102615E+03   -0.36528E-01   -0.36516E-01  3248   0.103E+00 0.497E-03
CGA:  10    -0.569578463165E+03   -0.15361E-01   -0.15320E-01  3248   0.616E-01 0.114E-02
CGA:  11    -0.569585375905E+03   -0.69127E-02   -0.69104E-02  3248   0.312E-01-0.324E-04
CGA:  12    -0.569590356294E+03   -0.49804E-02   -0.49695E-02  3248   0.206E-01 0.261E-03
CGA:  13    -0.569592530795E+03   -0.21745E-02   -0.21780E-02  3248   0.958E-02 0.872E-04
CGA:  14    -0.569594102998E+03   -0.15722E-02   -0.15721E-02  3248   0.681E-02 0.114E-04
CGA:  15    -0.569594951583E+03   -0.84858E-03   -0.84869E-03  3248   0.311E-02 0.123E-04
CGA:  16    -0.569595459397E+03   -0.50781E-03   -0.50885E-03  3248   0.229E-02-0.271E-04
CGA:  17    -0.569595718598E+03   -0.25920E-03   -0.25896E-03  3248   0.117E-02-0.160E-04
CGA:  18    -0.569595935778E+03   -0.21718E-03   -0.21787E-03  3248   0.912E-03-0.119E-04
CGA:  19    -0.569596041622E+03   -0.10584E-03   -0.10583E-03  3248   0.533E-03-0.552E-06
CGA:  20    -0.569596140332E+03   -0.98709E-04   -0.98148E-04  3248   0.415E-03 0.105E-04
CGA:  21    -0.569596191581E+03   -0.51249E-04   -0.51350E-04  3248   0.298E-03 0.781E-05
CGA:  22    -0.569596242888E+03   -0.51307E-04   -0.51066E-04  3248   0.165E-03 0.692E-05
CGA:  23    -0.569596268902E+03   -0.26014E-04   -0.26008E-04  3248   0.135E-03 0.274E-06
CGA:  24    -0.569596288296E+03   -0.19394E-04   -0.19421E-04  3248   0.770E-04-0.366E-05
CGA:  25    -0.569596300365E+03   -0.12069E-04   -0.12195E-04  3248   0.677E-04-0.473E-05
CGA:  26    -0.569596308880E+03   -0.85149E-05   -0.84994E-05  3248   0.382E-04-0.395E-05
   5 F= -.56959631E+03 E0= -.56958543E+03  d E =-.737987E-01  mag=    70.0000
       N       E                     dE             d eps       ncg     rms          ort
SDA:   1    -0.562784218137E+03    0.68121E+01    0.00000E+00  3248   0.267E+02 0.000E+00
CGA:   2    -0.565934637057E+03   -0.31504E+01   -0.31681E+01  3248   0.179E+02 0.125E+00
CGA:   3    -0.568174971556E+03   -0.22403E+01   -0.22358E+01  3248   0.793E+01-0.182E+00
CGA:   4    -0.569103998303E+03   -0.92903E+00   -0.92537E+00  3248   0.268E+01-0.629E-01
CGA:   5    -0.569516335388E+03   -0.41234E+00   -0.41250E+00  3248   0.893E+00-0.464E-02
CGA:   6    -0.569609139729E+03   -0.92804E-01   -0.92681E-01  3248   0.473E+00-0.163E-02
CGA:   7    -0.569663073207E+03   -0.53933E-01   -0.53928E-01  3248   0.100E+00 0.294E-04
CGA:   8    -0.569677135164E+03   -0.14062E-01   -0.14056E-01  3248   0.655E-01 0.636E-03
CGA:   9    -0.569683871246E+03   -0.67361E-02   -0.67232E-02  3248   0.287E-01 0.153E-04
CGA:  10    -0.569688086950E+03   -0.42157E-02   -0.42128E-02  3248   0.141E-01 0.164E-03
CGA:  11    -0.569689593710E+03   -0.15068E-02   -0.15077E-02  3248   0.860E-02 0.286E-05
CGA:  12    -0.569690974160E+03   -0.13805E-02   -0.13822E-02  3248   0.401E-02-0.578E-04
CGA:  13    -0.569691517363E+03   -0.54320E-03   -0.54324E-03  3248   0.309E-02-0.255E-04
CGA:  14    -0.569691940434E+03   -0.42307E-03   -0.42315E-03  3248   0.137E-02-0.202E-04
CGA:  15    -0.569692175024E+03   -0.23459E-03   -0.23405E-03  3248   0.111E-02 0.137E-04
CGA:  16    -0.569692306627E+03   -0.13160E-03   -0.13191E-03  3248   0.523E-03 0.169E-04
CGA:  17    -0.569692395248E+03   -0.88621E-04   -0.88055E-04  3248   0.430E-03 0.184E-04
CGA:  18    -0.569692450827E+03   -0.55579E-04   -0.55689E-04  3248   0.257E-03 0.924E-05
CGA:  19    -0.569692489908E+03   -0.39081E-04   -0.39074E-04  3248   0.190E-03 0.629E-06
CGA:  20    -0.569692518822E+03   -0.28915E-04   -0.28991E-04  3248   0.133E-03-0.514E-05
CGA:  21    -0.569692538892E+03   -0.20070E-04   -0.20205E-04  3248   0.104E-03-0.711E-05
CGA:  22    -0.569692553447E+03   -0.14555E-04   -0.14615E-04  3248   0.584E-04-0.573E-05
CGA:  23    -0.569692561739E+03   -0.82921E-05   -0.83112E-05  3248   0.432E-04-0.172E-05
   6 F= -.56969256E+03 E0= -.56968142E+03  d E =-.962529E-01  mag=    70.0000
       N       E                     dE             d eps       ncg     rms          ort
SDA:   1    -0.569228738411E+03    0.46382E+00    0.00000E+00  3248   0.188E+01 0.000E+00
CGA:   2    -0.569444924838E+03   -0.21619E+00   -0.21598E+00  3248   0.126E+01-0.325E-02
CGA:   3    -0.569595494764E+03   -0.15057E+00   -0.15065E+00  3248   0.606E+00 0.570E-03
CGA:   4    -0.569669257308E+03   -0.73763E-01   -0.73749E-01  3248   0.203E+00-0.395E-03
CGA:   5    -0.569698949407E+03   -0.29692E-01   -0.29689E-01  3248   0.649E-01 0.139E-03
CGA:   6    -0.569705247287E+03   -0.62979E-02   -0.62989E-02  3248   0.333E-01-0.758E-05
CGA:   7    -0.569709216666E+03   -0.39694E-02   -0.39691E-02  3248   0.793E-02 0.543E-05
CGA:   8    -0.569710224762E+03   -0.10081E-02   -0.10082E-02  3248   0.541E-02 0.176E-04
CGA:   9    -0.569710795511E+03   -0.57075E-03   -0.57097E-03  3248   0.191E-02 0.912E-05
CGA:  10    -0.569711100893E+03   -0.30538E-03   -0.30526E-03  3248   0.920E-03 0.478E-05
CGA:  11    -0.569711209898E+03   -0.10900E-03   -0.10898E-03  3248   0.638E-03-0.131E-05
CGA:  12    -0.569711312681E+03   -0.10278E-03   -0.10290E-03  3248   0.262E-03-0.403E-05
CGA:  13    -0.569711353572E+03   -0.40891E-04   -0.40981E-04  3248   0.252E-03-0.392E-05
CGA:  14    -0.569711385246E+03   -0.31674E-04   -0.31656E-04  3248   0.115E-03-0.218E-05
CGA:  15    -0.569711404208E+03   -0.18962E-04   -0.18913E-04  3248   0.927E-04 0.165E-05
CGA:  16    -0.569711415128E+03   -0.10920E-04   -0.10967E-04  3248   0.486E-04 0.235E-05
CGA:  17    -0.569711423256E+03   -0.81276E-05   -0.80665E-05  3248   0.352E-04 0.234E-05
   7 F= -.56971142E+03 E0= -.56970041E+03  d E =-.188615E-01  mag=    70.0000
       N       E                     dE             d eps       ncg     rms          ort
SDA:   1    -0.541645685476E+03    0.28066E+02    0.00000E+00  3248   0.104E+03 0.000E+00
CGA:   2    -0.554571607125E+03   -0.12926E+02   -0.12970E+02  3248   0.672E+02 0.195E+01
CGA:   3    -0.563031572937E+03   -0.84600E+01   -0.83974E+01  3248   0.370E+02-0.301E+01
CGA:   4    -0.567103316024E+03   -0.40717E+01   -0.35928E+01  3248   0.152E+02-0.242E+01
CGA:   5    -0.568698822289E+03   -0.15955E+01   -0.16199E+01  3248   0.615E+01 0.315E+00
CGA:   6    -0.569175654160E+03   -0.47683E+00   -0.42605E+00  3248   0.288E+01 0.190E+00
CGA:   7    -0.569461582563E+03   -0.28593E+00   -0.29387E+00  3248   0.147E+01 0.482E-01
CGA:   8    -0.569582008892E+03   -0.12043E+00   -0.12169E+00  3248   0.566E+00-0.885E-02
CGA:   9    -0.569641110624E+03   -0.59102E-01   -0.59966E-01  3248   0.320E+00 0.145E-01
CGA:  10    -0.569667610377E+03   -0.26500E-01   -0.27021E-01  3248   0.161E+00-0.788E-03
CGA:  11    -0.569691522909E+03   -0.23913E-01   -0.23671E-01  3248   0.628E-01 0.650E-02
CGA:  12    -0.569699229436E+03   -0.77065E-02   -0.77220E-02  3248   0.510E-01 0.114E-02
CGA:  13    -0.569705697376E+03   -0.64679E-02   -0.64665E-02  3248   0.231E-01 0.119E-02
CGA:  14    -0.569709084115E+03   -0.33867E-02   -0.33743E-02  3248   0.161E-01 0.430E-03
CGA:  15    -0.569711276022E+03   -0.21919E-02   -0.21909E-02  3248   0.817E-02 0.841E-04
CGA:  16    -0.569712582723E+03   -0.13067E-02   -0.13053E-02  3248   0.621E-02 0.323E-04
CGA:  17    -0.569713517302E+03   -0.93458E-03   -0.93355E-03  3248   0.342E-02 0.291E-04
CGA:  18    -0.569713980199E+03   -0.46290E-03   -0.46286E-03  3248   0.243E-02-0.132E-05
CGA:  19    -0.569714376717E+03   -0.39652E-03   -0.39664E-03  3248   0.130E-02-0.557E-05
CGA:  20    -0.569714595746E+03   -0.21903E-03   -0.21926E-03  3248   0.115E-02-0.575E-05
CGA:  21    -0.569714753575E+03   -0.15783E-03   -0.15781E-03  3248   0.532E-03 0.353E-05
CGA:  22    -0.569714847115E+03   -0.93539E-04   -0.93245E-04  3248   0.446E-03 0.714E-05
CGA:  23    -0.569714904975E+03   -0.57860E-04   -0.57896E-04  3248   0.240E-03 0.565E-05
CGA:  24    -0.569714948077E+03   -0.43102E-04   -0.43143E-04  3248   0.160E-03-0.903E-06
CGA:  25    -0.569714971345E+03   -0.23268E-04   -0.23302E-04  3248   0.112E-03-0.352E-05
CGA:  26    -0.569714989808E+03   -0.18463E-04   -0.18639E-04  3248   0.788E-04-0.537E-05
CGA:  27    -0.569715002099E+03   -0.12291E-04   -0.12365E-04  3248   0.701E-04-0.280E-05
CGA:  28    -0.569715012669E+03   -0.10569E-04   -0.10599E-04  3248   0.480E-04-0.174E-05
CGA:  29    -0.569715020538E+03   -0.78692E-05   -0.78666E-05  3248   0.378E-04 0.773E-07
   8 F= -.56971502E+03 E0= -.56970394E+03  d E =-.359728E-02  mag=    70.0000
       N       E                     dE             d eps       ncg     rms          ort
SDA:   1    -0.550011830967E+03    0.19703E+02    0.00000E+00  3248   0.813E+02 0.000E+00
CGA:   2    -0.559228298994E+03   -0.92165E+01   -0.89955E+01  3248   0.506E+02-0.363E+01
CGA:   3    -0.564964330244E+03   -0.57360E+01   -0.57868E+01  3248   0.243E+02 0.171E+00
CGA:   4    -0.567817134687E+03   -0.28528E+01   -0.27407E+01  3248   0.106E+02-0.904E+00
CGA:   5    -0.568925636432E+03   -0.11085E+01   -0.11267E+01  3248   0.505E+01 0.122E+00
CGA:   6    -0.569415617881E+03   -0.48998E+00   -0.47636E+00  3248   0.164E+01-0.146E-01
CGA:   7    -0.569581325509E+03   -0.16571E+00   -0.16886E+00  3248   0.990E+00 0.185E-01
CGA:   8    -0.569667989301E+03   -0.86664E-01   -0.87368E-01  3248   0.334E+00-0.247E-02
CGA:   9    -0.569704844099E+03   -0.36855E-01   -0.36984E-01  3248   0.145E+00 0.202E-02
CGA:  10    -0.569722774911E+03   -0.17931E-01   -0.17977E-01  3248   0.928E-01 0.285E-02
CGA:  11    -0.569733037871E+03   -0.10263E-01   -0.10311E-01  3248   0.474E-01 0.732E-03
CGA:  12    -0.569738189919E+03   -0.51520E-02   -0.51725E-02  3248   0.257E-01 0.298E-03
CGA:  13    -0.569741736090E+03   -0.35462E-02   -0.35442E-02  3248   0.149E-01 0.110E-03
CGA:  14    -0.569743853088E+03   -0.21170E-02   -0.21157E-02  3248   0.100E-01 0.385E-04
CGA:  15    -0.569745118763E+03   -0.12657E-02   -0.12659E-02  3248   0.587E-02 0.122E-04
CGA:  16    -0.569745877855E+03   -0.75909E-03   -0.75911E-03  3248   0.426E-02 0.304E-04
CGA:  17    -0.569746471073E+03   -0.59322E-03   -0.59288E-03  3248   0.245E-02 0.319E-04
CGA:  18    -0.569746824238E+03   -0.35317E-03   -0.35284E-03  3248   0.161E-02 0.232E-04
CGA:  19    -0.569747060283E+03   -0.23605E-03   -0.23573E-03  3248   0.104E-02 0.201E-04
CGA:  20    -0.569747203486E+03   -0.14320E-03   -0.14319E-03  3248   0.779E-03 0.380E-05
CGA:  21    -0.569747311284E+03   -0.10780E-03   -0.10781E-03  3248   0.506E-03-0.214E-05
CGA:  22    -0.569747382915E+03   -0.71631E-04   -0.71729E-04  3248   0.336E-03-0.908E-05
CGA:  23    -0.569747434775E+03   -0.51860E-04   -0.52105E-04  3248   0.236E-03-0.950E-05
CGA:  24    -0.569747467073E+03   -0.32298E-04   -0.32348E-04  3248   0.164E-03-0.659E-05
CGA:  25    -0.569747489008E+03   -0.21935E-04   -0.21943E-04  3248   0.119E-03-0.214E-05
CGA:  26    -0.569747504838E+03   -0.15830E-04   -0.15830E-04  3248   0.749E-04-0.723E-07
CGA:  27    -0.569747516202E+03   -0.11364E-04   -0.11320E-04  3248   0.545E-04 0.256E-05
CGA:  28    -0.569747525488E+03   -0.92866E-05   -0.92161E-05  3248   0.434E-04 0.247E-05
   9 F= -.56974753E+03 E0= -.56973584E+03  d E =-.325050E-01  mag=    69.9997
       N       E                     dE             d eps       ncg     rms          ort
SDA:   1    -0.566142382262E+03    0.36051E+01    0.00000E+00  3248   0.141E+02 0.000E+00
CGA:   2    -0.568058798509E+03   -0.19164E+01   -0.19164E+01  3248   0.722E+01 0.117E-01
CGA:   3    -0.569132859575E+03   -0.10741E+01   -0.10753E+01  3248   0.407E+01-0.571E-01
CGA:   4    -0.569492370550E+03   -0.35951E+00   -0.36855E+00  3248   0.189E+01-0.132E-01
CGA:   5    -0.569730792405E+03   -0.23842E+00   -0.23817E+00  3248   0.416E+00-0.129E-01
CGA:   6    -0.569794261338E+03   -0.63469E-01   -0.63411E-01  3248   0.223E+00 0.194E-02
CGA:   7    -0.569813725400E+03   -0.19464E-01   -0.19304E-01  3248   0.765E-01 0.127E-03
CGA:   8    -0.569823883726E+03   -0.10158E-01   -0.10158E-01  3248   0.267E-01 0.119E-04
CGA:   9    -0.569827862853E+03   -0.39791E-02   -0.39810E-02  3248   0.199E-01-0.908E-04
CGA:  10    -0.569829808309E+03   -0.19455E-02   -0.19465E-02  3248   0.695E-02-0.118E-04
CGA:  11    -0.569831032917E+03   -0.12246E-02   -0.12245E-02  3248   0.438E-02 0.459E-05
CGA:  12    -0.569831546297E+03   -0.51338E-03   -0.51401E-03  3248   0.283E-02 0.288E-04
CGA:  13    -0.569831956779E+03   -0.41048E-03   -0.41018E-03  3248   0.150E-02 0.284E-04
CGA:  14    -0.569832175836E+03   -0.21906E-03   -0.21892E-03  3248   0.999E-03 0.121E-04
CGA:  15    -0.569832322018E+03   -0.14618E-03   -0.14624E-03  3248   0.768E-03-0.508E-05
CGA:  16    -0.569832419351E+03   -0.97334E-04   -0.97268E-04  3248   0.360E-03-0.906E-05
CGA:  17    -0.569832484141E+03   -0.64790E-04   -0.65351E-04  3248   0.333E-03-0.115E-04
CGA:  18    -0.569832518625E+03   -0.34484E-04   -0.34362E-04  3248   0.150E-03-0.411E-05
CGA:  19    -0.569832548612E+03   -0.29987E-04   -0.29950E-04  3248   0.114E-03 0.552E-06
CGA:  20    -0.569832562008E+03   -0.13396E-04   -0.13457E-04  3248   0.738E-04 0.276E-05
CGA:  21    -0.569832574583E+03   -0.12575E-04   -0.12475E-04  3248   0.474E-04 0.370E-05
CGA:  22    -0.569832581897E+03   -0.73143E-05   -0.72990E-05  3248   0.326E-04 0.205E-05
  10 F= -.56983258E+03 E0= -.56982162E+03  d E =-.850564E-01  mag=    70.0000
       N       E                     dE             d eps       ncg     rms          ort
SDA:   1    -0.569768323302E+03    0.64251E-01    0.00000E+00  3248   0.302E+00 0.000E+00
CGA:   2    -0.569797518067E+03   -0.29195E-01   -0.29100E-01  3248   0.192E+00-0.180E-03
CGA:   3    -0.569819414261E+03   -0.21896E-01   -0.21930E-01  3248   0.881E-01 0.418E-03
CGA:   4    -0.569831105301E+03   -0.11691E-01   -0.11691E-01  3248   0.311E-01-0.567E-04
CGA:   5    -0.569835366636E+03   -0.42613E-02   -0.42613E-02  3248   0.141E-01 0.188E-04
CGA:   6    -0.569836579526E+03   -0.12129E-02   -0.12112E-02  3248   0.445E-02-0.172E-05
CGA:   7    -0.569837235060E+03   -0.65553E-03   -0.65549E-03  3248   0.163E-02 0.265E-05
CGA:   8    -0.569837385412E+03   -0.15035E-03   -0.15026E-03  3248   0.789E-03-0.734E-07
CGA:   9    -0.569837495883E+03   -0.11047E-03   -0.11046E-03  3248   0.300E-03 0.146E-05
CGA:  10    -0.569837542298E+03   -0.46414E-04   -0.46435E-04  3248   0.193E-03-0.830E-06
CGA:  11    -0.569837563372E+03   -0.21075E-04   -0.21074E-04  3248   0.106E-03-0.853E-07
CGA:  12    -0.569837580331E+03   -0.16959E-04   -0.16988E-04  3248   0.740E-04-0.102E-05
CGA:  13    -0.569837590114E+03   -0.97829E-05   -0.97825E-05  3248   0.454E-04-0.521E-06
  11 F= -.56983759E+03 E0= -.56982663E+03  d E =-.500822E-02  mag=    70.0000
       N       E                     dE             d eps       ncg     rms          ort
SDA:   1    -0.550161417160E+03    0.19676E+02    0.00000E+00  3248   0.730E+02 0.000E+00
CGA:   2    -0.558991951300E+03   -0.88305E+01   -0.89306E+01  3248   0.507E+02 0.325E+01
CGA:   3    -0.564641190562E+03   -0.56492E+01   -0.56036E+01  3248   0.286E+02-0.270E+01
CGA:   4    -0.567975636510E+03   -0.33344E+01   -0.31737E+01  3248   0.129E+02-0.387E+01
CGA:   5    -0.569078634430E+03   -0.11030E+01   -0.11429E+01  3248   0.531E+01 0.202E+00
CGA:   6    -0.569456586951E+03   -0.37795E+00   -0.34522E+00  3248   0.235E+01 0.121E+00
CGA:   7    -0.569711337924E+03   -0.25475E+00   -0.25713E+00  3248   0.911E+00 0.367E-01
CGA:   8    -0.569790937547E+03   -0.79600E-01   -0.78891E-01  3248   0.637E+00-0.369E-02
CGA:   9    -0.569839616208E+03   -0.48679E-01   -0.50419E-01  3248   0.184E+00-0.235E-02
CGA:  10    -0.569862560940E+03   -0.22945E-01   -0.22938E-01  3248   0.167E+00 0.116E-02
CGA:  11    -0.569877267195E+03   -0.14706E-01   -0.15123E-01  3248   0.714E-01 0.213E-02
CGA:  12    -0.569884486438E+03   -0.72192E-02   -0.72459E-02  3248   0.389E-01 0.413E-03
CGA:  13    -0.569890398622E+03   -0.59122E-02   -0.58494E-02  3248   0.262E-01 0.142E-02
CGA:  14    -0.569893026543E+03   -0.26279E-02   -0.26379E-02  3248   0.168E-01 0.108E-03
CGA:  15    -0.569895627323E+03   -0.26008E-02   -0.25808E-02  3248   0.741E-02 0.426E-03
CGA:  16    -0.569896748957E+03   -0.11216E-02   -0.11203E-02  3248   0.899E-02 0.374E-04
CGA:  17    -0.569897859161E+03   -0.11102E-02   -0.11101E-02  3248   0.330E-02 0.870E-04
CGA:  18    -0.569898413841E+03   -0.55468E-03   -0.55387E-03  3248   0.311E-02 0.172E-04
CGA:  19    -0.569898787120E+03   -0.37328E-03   -0.37342E-03  3248   0.163E-02 0.175E-04
CGA:  20    -0.569899014077E+03   -0.22696E-03   -0.22703E-03  3248   0.133E-02-0.419E-05
CGA:  21    -0.569899204882E+03   -0.19081E-03   -0.19085E-03  3248   0.682E-03-0.338E-05
CGA:  22    -0.569899297174E+03   -0.92291E-04   -0.92351E-04  3248   0.527E-03-0.530E-05
CGA:  23    -0.569899362384E+03   -0.65210E-04   -0.65208E-04  3248   0.300E-03-0.108E-05
CGA:  24    -0.569899407953E+03   -0.45569E-04   -0.45611E-04  3248   0.206E-03-0.133E-05
CGA:  25    -0.569899433873E+03   -0.25920E-04   -0.25920E-04  3248   0.115E-03-0.377E-07
CGA:  26    -0.569899448971E+03   -0.15098E-04   -0.15103E-04  3248   0.930E-04-0.112E-05
CGA:  27    -0.569899462877E+03   -0.13906E-04   -0.13922E-04  3248   0.478E-04-0.697E-06
CGA:  28    -0.569899470256E+03   -0.73789E-05   -0.73968E-05  3248   0.572E-04-0.661E-06
  12 F= -.56989947E+03 E0= -.56988886E+03  d E =-.618801E-01  mag=    70.0000
       N       E                     dE             d eps       ncg     rms          ort
SDA:   1    -0.548851892258E+03    0.21048E+02    0.00000E+00  3248   0.839E+02 0.000E+00
CGA:   2    -0.558675569414E+03   -0.98237E+01   -0.98004E+01  3248   0.560E+02-0.120E+01
CGA:   3    -0.564170194694E+03   -0.54946E+01   -0.57510E+01  3248   0.274E+02 0.238E+01
CGA:   4    -0.567618344523E+03   -0.34481E+01   -0.33657E+01  3248   0.111E+02-0.294E+01
CGA:   5    -0.568925354053E+03   -0.13070E+01   -0.13039E+01  3248   0.455E+01 0.435E+00
CGA:   6    -0.569320054703E+03   -0.39470E+00   -0.35546E+00  3248   0.203E+01 0.832E-01
CGA:   7    -0.569530498980E+03   -0.21044E+00   -0.21288E+00  3248   0.680E+00 0.293E-01
CGA:   8    -0.569616682641E+03   -0.86184E-01   -0.86188E-01  3248   0.447E+00-0.515E-02
CGA:   9    -0.569648583541E+03   -0.31901E-01   -0.33462E-01  3248   0.148E+00-0.437E-02
CGA:  10    -0.569671054773E+03   -0.22471E-01   -0.22461E-01  3248   0.985E-01 0.213E-03
CGA:  11    -0.569680537959E+03   -0.94832E-02   -0.96296E-02  3248   0.497E-01 0.136E-02
CGA:  12    -0.569686801972E+03   -0.62640E-02   -0.62638E-02  3248   0.301E-01 0.620E-04
CGA:  13    -0.569690640649E+03   -0.38387E-02   -0.38360E-02  3248   0.171E-01 0.324E-03
CGA:  14    -0.569693264778E+03   -0.26241E-02   -0.26234E-02  3248   0.153E-01 0.219E-04
CGA:  15    -0.569694899779E+03   -0.16350E-02   -0.16416E-02  3248   0.678E-02 0.142E-03
CGA:  16    -0.569696272765E+03   -0.13730E-02   -0.13730E-02  3248   0.589E-02-0.601E-06
CGA:  17    -0.569696893547E+03   -0.62078E-03   -0.62230E-03  3248   0.363E-02 0.227E-04
CGA:  18    -0.569697487626E+03   -0.59408E-03   -0.59458E-03  3248   0.217E-02-0.110E-04
CGA:  19    -0.569697778359E+03   -0.29073E-03   -0.29066E-03  3248   0.159E-02 0.679E-05
CGA:  20    -0.569697998258E+03   -0.21990E-03   -0.21998E-03  3248   0.109E-02-0.483E-05
CGA:  21    -0.569698146794E+03   -0.14854E-03   -0.14851E-03  3248   0.623E-03 0.262E-05
CGA:  22    -0.569698240300E+03   -0.93506E-04   -0.93550E-04  3248   0.493E-03-0.130E-05
CGA:  23    -0.569698300169E+03   -0.59869E-04   -0.59886E-04  3248   0.271E-03 0.173E-05
CGA:  24    -0.569698342599E+03   -0.42431E-04   -0.42473E-04  3248   0.182E-03-0.138E-05
CGA:  25    -0.569698366870E+03   -0.24271E-04   -0.24274E-04  3248   0.132E-03-0.998E-06
CGA:  26    -0.569698384435E+03   -0.17565E-04   -0.17572E-04  3248   0.838E-04-0.257E-05
CGA:  27    -0.569698397404E+03   -0.12969E-04   -0.13009E-04  3248   0.649E-04-0.149E-05
CGA:  28    -0.569698406820E+03   -0.94157E-05   -0.94348E-05  3248   0.565E-04-0.120E-05
  13 F= -.56969841E+03 E0= -.56968738E+03  d E =0.201063E+00  mag=    69.9984
       N       E                     dE             d eps       ncg     rms          ort
SDA:   1    -0.565543596208E+03    0.41548E+01    0.00000E+00  3248   0.182E+02 0.000E+00
CGA:   2    -0.567840977442E+03   -0.22974E+01   -0.22975E+01  3248   0.765E+01 0.883E-02
CGA:   3    -0.569131487438E+03   -0.12905E+01   -0.12918E+01  3248   0.377E+01-0.247E-01
CGA:   4    -0.569531289471E+03   -0.39980E+00   -0.41190E+00  3248   0.253E+01 0.126E+00
CGA:   5    -0.569776318770E+03   -0.24503E+00   -0.23463E+00  3248   0.559E+00-0.612E-02
CGA:   6    -0.569859479847E+03   -0.83161E-01   -0.83019E-01  3248   0.244E+00 0.507E-02
CGA:   7    -0.569882532101E+03   -0.23052E-01   -0.22729E-01  3248   0.122E+00-0.597E-03
CGA:   8    -0.569895168134E+03   -0.12636E-01   -0.12685E-01  3248   0.382E-01 0.508E-03
CGA:   9    -0.569900690894E+03   -0.55228E-02   -0.55264E-02  3248   0.250E-01-0.129E-03
CGA:  10    -0.569903095067E+03   -0.24042E-02   -0.24141E-02  3248   0.113E-01 0.646E-04
CGA:  11    -0.569904488028E+03   -0.13930E-02   -0.13926E-02  3248   0.629E-02-0.313E-04
CGA:  12    -0.569905343382E+03   -0.85535E-03   -0.85516E-03  3248   0.348E-02 0.129E-04
CGA:  13    -0.569905763655E+03   -0.42027E-03   -0.42015E-03  3248   0.282E-02-0.557E-05
CGA:  14    -0.569906125839E+03   -0.36218E-03   -0.36217E-03  3248   0.115E-02 0.121E-04
CGA:  15    -0.569906316899E+03   -0.19106E-03   -0.19106E-03  3248   0.126E-02 0.842E-06
CGA:  16    -0.569906450052E+03   -0.13315E-03   -0.13330E-03  3248   0.551E-03 0.377E-05
CGA:  17    -0.569906537107E+03   -0.87055E-04   -0.87104E-04  3248   0.432E-03-0.152E-05
CGA:  18    -0.569906592493E+03   -0.55386E-04   -0.55386E-04  3248   0.286E-03-0.226E-06
CGA:  19    -0.569906625534E+03   -0.33041E-04   -0.33011E-04  3248   0.174E-03-0.184E-05
CGA:  20    -0.569906655917E+03   -0.30383E-04   -0.30434E-04  3248   0.123E-03-0.114E-05
CGA:  21    -0.569906669449E+03   -0.13532E-04   -0.13506E-04  3248   0.901E-04-0.113E-05
CGA:  22    -0.569906684262E+03   -0.14813E-04   -0.14824E-04  3248   0.560E-04-0.326E-06
CGA:  23    -0.569906691704E+03   -0.74421E-05   -0.74420E-05  3248   0.453E-04-0.334E-06
  14 F= -.56990669E+03 E0= -.56989649E+03  d E =-.208285E+00  mag=    69.9996
       N       E                     dE             d eps       ncg     rms          ort
SDA:   1    -0.569013377032E+03    0.89331E+00    0.00000E+00  3248   0.376E+01 0.000E+00
CGA:   2    -0.569497442568E+03   -0.48407E+00   -0.48407E+00  3248   0.167E+01 0.476E-03
CGA:   3    -0.569774663292E+03   -0.27722E+00   -0.27744E+00  3248   0.861E+00-0.444E-02
CGA:   4    -0.569853295699E+03   -0.78632E-01   -0.80958E-01  3248   0.571E+00 0.409E-02
CGA:   5    -0.569911661112E+03   -0.58365E-01   -0.57949E-01  3248   0.115E+00-0.269E-02
CGA:   6    -0.569929213941E+03   -0.17553E-01   -0.17538E-01  3248   0.533E-01 0.419E-03
CGA:   7    -0.569933792093E+03   -0.45782E-02   -0.45375E-02  3248   0.256E-01 0.469E-04
CGA:   8    -0.569936641712E+03   -0.28496E-02   -0.28524E-02  3248   0.736E-02 0.712E-04
CGA:   9    -0.569937755284E+03   -0.11136E-02   -0.11139E-02  3248   0.541E-02-0.296E-05
CGA:  10    -0.569938229017E+03   -0.47373E-03   -0.47518E-03  3248   0.220E-02 0.740E-05
CGA:  11    -0.569938538814E+03   -0.30980E-03   -0.30989E-03  3248   0.120E-02-0.520E-05
CGA:  12    -0.569938689584E+03   -0.15077E-03   -0.15077E-03  3248   0.789E-03-0.111E-06
CGA:  13    -0.569938782204E+03   -0.92620E-04   -0.92587E-04  3248   0.538E-03-0.218E-05
CGA:  14    -0.569938852889E+03   -0.70685E-04   -0.70676E-04  3248   0.242E-03 0.167E-05
CGA:  15    -0.569938890033E+03   -0.37143E-04   -0.37125E-04  3248   0.260E-03 0.812E-06
CGA:  16    -0.569938918290E+03   -0.28257E-04   -0.28299E-04  3248   0.110E-03 0.192E-05
CGA:  17    -0.569938936134E+03   -0.17844E-04   -0.17830E-04  3248   0.923E-04 0.433E-06
CGA:  18    -0.569938947326E+03   -0.11192E-04   -0.11198E-04  3248   0.600E-04 0.520E-06
CGA:  19    -0.569938954756E+03   -0.74300E-05   -0.74279E-05  3248   0.389E-04-0.467E-06
  15 F= -.56993895E+03 E0= -.56992887E+03  d E =-.322631E-01  mag=    69.9998
       N       E                     dE             d eps       ncg     rms          ort
SDA:   1    -0.569842493112E+03    0.96454E-01    0.00000E+00  3248   0.374E+00 0.000E+00
CGA:   2    -0.569894268911E+03   -0.51776E-01   -0.51776E-01  3248   0.197E+00-0.167E-04
CGA:   3    -0.569927777754E+03   -0.33509E-01   -0.33504E-01  3248   0.710E-01 0.948E-04
CGA:   4    -0.569937202574E+03   -0.94248E-02   -0.94243E-02  3248   0.553E-01-0.352E-03
CGA:   5    -0.569941087310E+03   -0.38847E-02   -0.39362E-02  3248   0.123E-01-0.329E-03
CGA:   6    -0.569942919620E+03   -0.18323E-02   -0.18326E-02  3248   0.425E-02-0.940E-05
CGA:   7    -0.569943386629E+03   -0.46701E-03   -0.46762E-03  3248   0.226E-02 0.147E-04
CGA:   8    -0.569943594670E+03   -0.20804E-03   -0.20778E-03  3248   0.842E-03 0.425E-05
CGA:   9    -0.569943708510E+03   -0.11384E-03   -0.11380E-03  3248   0.437E-03 0.502E-05
CGA:  10    -0.569943757803E+03   -0.49293E-04   -0.49285E-04  3248   0.263E-03 0.394E-07
CGA:  11    -0.569943784492E+03   -0.26690E-04   -0.26689E-04  3248   0.118E-03-0.290E-06
CGA:  12    -0.569943803685E+03   -0.19192E-04   -0.19285E-04  3248   0.659E-04-0.243E-05
CGA:  13    -0.569943812565E+03   -0.88804E-05   -0.88899E-05  3248   0.616E-04-0.107E-05
  16 F= -.56994381E+03 E0= -.56993380E+03  d E =-.485781E-02  mag=    69.9999
       N       E                     dE             d eps       ncg     rms          ort
SDA:   1    -0.569371908249E+03    0.57190E+00    0.00000E+00  3248   0.217E+01 0.000E+00
CGA:   2    -0.569592450140E+03   -0.22054E+00   -0.21579E+00  3248   0.202E+01-0.418E-01
CGA:   3    -0.569790499474E+03   -0.19805E+00   -0.19986E+00  3248   0.755E+00 0.166E-01
CGA:   4    -0.569899797164E+03   -0.10930E+00   -0.10931E+00  3248   0.234E+00-0.368E-03
CGA:   5    -0.569936029053E+03   -0.36232E-01   -0.36233E-01  3248   0.635E-01-0.498E-04
CGA:   6    -0.569943576812E+03   -0.75478E-02   -0.75567E-02  3248   0.474E-01 0.475E-03
CGA:   7    -0.569947501913E+03   -0.39251E-02   -0.38955E-02  3248   0.114E-01 0.427E-04
CGA:   8    -0.569948949958E+03   -0.14480E-02   -0.14479E-02  3248   0.468E-02 0.422E-04
CGA:   9    -0.569949631946E+03   -0.68199E-03   -0.68234E-03  3248   0.280E-02-0.844E-05
CGA:  10    -0.569949896297E+03   -0.26435E-03   -0.26511E-03  3248   0.129E-02 0.641E-05
CGA:  11    -0.569950079112E+03   -0.18282E-03   -0.18290E-03  3248   0.620E-03-0.400E-05
CGA:  12    -0.569950163172E+03   -0.84059E-04   -0.84078E-04  3248   0.559E-03-0.237E-05
CGA:  13    -0.569950217207E+03   -0.54035E-04   -0.53882E-04  3248   0.208E-03-0.444E-05
CGA:  14    -0.569950255802E+03   -0.38596E-04   -0.38699E-04  3248   0.137E-03-0.166E-05
CGA:  15    -0.569950275189E+03   -0.19387E-04   -0.19379E-04  3248   0.956E-04 0.616E-06
CGA:  16    -0.569950285240E+03   -0.10051E-04   -0.10103E-04  3248   0.592E-04 0.221E-05
CGA:  17    -0.569950293706E+03   -0.84665E-05   -0.84377E-05  3248   0.293E-04 0.233E-05
  17 F= -.56995029E+03 E0= -.56994052E+03  d E =-.648114E-02  mag=    69.9998
       N       E                     dE             d eps       ncg     rms          ort
SDA:   1    -0.567552861903E+03    0.23974E+01    0.00000E+00  3248   0.825E+01 0.000E+00
CGA:   2    -0.568465406123E+03   -0.91254E+00   -0.88581E+00  3248   0.937E+01-0.464E+00
CGA:   3    -0.569335836636E+03   -0.87043E+00   -0.88162E+00  3248   0.321E+01 0.701E-01
CGA:   4    -0.569757784315E+03   -0.42195E+00   -0.42191E+00  3248   0.108E+01 0.444E-02
CGA:   5    -0.569867823015E+03   -0.11004E+00   -0.10817E+00  3248   0.717E+00-0.179E-01
CGA:   6    -0.569926021600E+03   -0.58199E-01   -0.59231E-01  3248   0.141E+00 0.258E-03
CGA:   7    -0.569951013743E+03   -0.24992E-01   -0.24989E-01  3248   0.524E-01 0.606E-04
CGA:   8    -0.569956007816E+03   -0.49941E-02   -0.49096E-02  3248   0.271E-01-0.410E-03
CGA:   9    -0.569959272221E+03   -0.32644E-02   -0.32649E-02  3248   0.126E-01 0.104E-03
CGA:  10    -0.569960712273E+03   -0.14401E-02   -0.14380E-02  3248   0.729E-02-0.895E-04
CGA:  11    -0.569961541665E+03   -0.82939E-03   -0.83000E-03  3248   0.323E-02 0.284E-04
CGA:  12    -0.569962080482E+03   -0.53882E-03   -0.53894E-03  3248   0.175E-02-0.257E-05
CGA:  13    -0.569962423923E+03   -0.34344E-03   -0.34372E-03  3248   0.931E-03-0.380E-05
CGA:  14    -0.569962555949E+03   -0.13203E-03   -0.13196E-03  3248   0.108E-02 0.327E-05
CGA:  15    -0.569962682016E+03   -0.12607E-03   -0.12604E-03  3248   0.385E-03-0.687E-06
CGA:  16    -0.569962751124E+03   -0.69107E-04   -0.68850E-04  3248   0.321E-03 0.491E-05
CGA:  17    -0.569962791077E+03   -0.39954E-04   -0.39971E-04  3248   0.170E-03 0.238E-05
CGA:  18    -0.569962820853E+03   -0.29776E-04   -0.29732E-04  3248   0.110E-03 0.101E-05
CGA:  19    -0.569962842641E+03   -0.21787E-04   -0.21862E-04  3248   0.570E-04-0.115E-05
CGA:  20    -0.569962854030E+03   -0.11390E-04   -0.11432E-04  3248   0.622E-04-0.663E-06
CGA:  21    -0.569962860391E+03   -0.63611E-05   -0.63381E-05  3248   0.310E-04-0.567E-06
  18 F= -.56996286E+03 E0= -.56995380E+03  d E =-.125667E-01  mag=    69.9996
       N       E                     dE             d eps       ncg     rms          ort
SDA:   1    -0.546963018818E+03    0.23000E+02    0.00000E+00  3248   0.966E+02 0.000E+00
CGA:   2    -0.557501378819E+03   -0.10538E+02   -0.10263E+02  3248   0.592E+02-0.433E+01
CGA:   3    -0.564147572635E+03   -0.66462E+01   -0.67796E+01  3248   0.280E+02 0.287E+01
CGA:   4    -0.567723451968E+03   -0.35759E+01   -0.35156E+01  3248   0.884E+01-0.109E+01
CGA:   5    -0.569180510949E+03   -0.14571E+01   -0.14481E+01  3248   0.261E+01 0.181E+00
CGA:   6    -0.569491178621E+03   -0.31067E+00   -0.30626E+00  3248   0.167E+01-0.625E-01
CGA:   7    -0.569624511375E+03   -0.13333E+00   -0.13877E+00  3248   0.488E+00-0.918E-02
CGA:   8    -0.569694388331E+03   -0.69877E-01   -0.69921E-01  3248   0.176E+00-0.246E-02
CGA:   9    -0.569720091773E+03   -0.25703E-01   -0.25660E-01  3248   0.103E+00 0.211E-02
CGA:  10    -0.569731939815E+03   -0.11848E-01   -0.11837E-01  3248   0.560E-01-0.194E-03
CGA:  11    -0.569738625266E+03   -0.66855E-02   -0.67039E-02  3248   0.252E-01 0.540E-03
CGA:  12    -0.569742943751E+03   -0.43185E-02   -0.43185E-02  3248   0.158E-01 0.823E-05
CGA:  13    -0.569745281297E+03   -0.23375E-02   -0.23345E-02  3248   0.945E-02 0.150E-03
CGA:  14    -0.569746675871E+03   -0.13946E-02   -0.13947E-02  3248   0.695E-02-0.574E-05
CGA:  15    -0.569747528681E+03   -0.85281E-03   -0.85375E-03  3248   0.359E-02 0.302E-04
CGA:  16    -0.569748209660E+03   -0.68098E-03   -0.68182E-03  3248   0.226E-02-0.143E-04
CGA:  17    -0.569748561182E+03   -0.35152E-03   -0.35144E-03  3248   0.151E-02 0.908E-06
CGA:  18    -0.569748787258E+03   -0.22608E-03   -0.22616E-03  3248   0.119E-02-0.683E-05
CGA:  19    -0.569748941038E+03   -0.15378E-03   -0.15384E-03  3248   0.619E-03 0.384E-05
CGA:  20    -0.569749067592E+03   -0.12655E-03   -0.12645E-03  3248   0.421E-03 0.192E-05
CGA:  21    -0.569749136338E+03   -0.68746E-04   -0.68667E-04  3248   0.312E-03 0.353E-05
CGA:  22    -0.569749179933E+03   -0.43595E-04   -0.43589E-04  3248   0.225E-03-0.913E-06
CGA:  23    -0.569749212684E+03   -0.32751E-04   -0.32753E-04  3248   0.115E-03-0.647E-06
CGA:  24    -0.569749235791E+03   -0.23106E-04   -0.23322E-04  3248   0.962E-04-0.360E-05
CGA:  25    -0.569749249487E+03   -0.13696E-04   -0.13698E-04  3248   0.692E-04-0.180E-05
CGA:  26    -0.569749260263E+03   -0.10776E-04   -0.10800E-04  3248   0.601E-04-0.183E-05
CGA:  27    -0.569749269384E+03   -0.91209E-05   -0.91208E-05  3248   0.343E-04-0.720E-07
  19 F= -.56974927E+03 E0= -.56973770E+03  d E =0.213591E+00  mag=    69.9929
       N       E                     dE             d eps       ncg     rms          ort
SDA:   1    -0.563928809575E+03    0.58205E+01    0.00000E+00  3248   0.273E+02 0.000E+00
CGA:   2    -0.567069461436E+03   -0.31407E+01   -0.31342E+01  3248   0.107E+02-0.351E-01
CGA:   3    -0.568971087937E+03   -0.19016E+01   -0.18956E+01  3248   0.434E+01 0.143E+00
CGA:   4    -0.569507298164E+03   -0.53621E+00   -0.51162E+00  3248   0.316E+01-0.161E+00
CGA:   5    -0.569811125072E+03   -0.30383E+00   -0.31267E+00  3248   0.663E+00 0.103E-01
CGA:   6    -0.569916516945E+03   -0.10539E+00   -0.10541E+00  3248   0.191E+00-0.999E-03
CGA:   7    -0.569947478528E+03   -0.30962E-01   -0.30966E-01  3248   0.739E-01-0.115E-03
CGA:   8    -0.569957673952E+03   -0.10195E-01   -0.10207E-01  3248   0.347E-01 0.559E-03
CGA:   9    -0.569962165256E+03   -0.44913E-02   -0.44777E-02  3248   0.193E-01-0.242E-03
CGA:  10    -0.569964314791E+03   -0.21495E-02   -0.21596E-02  3248   0.873E-02 0.657E-04
CGA:  11    -0.569965603638E+03   -0.12888E-02   -0.12892E-02  3248   0.460E-02-0.778E-04
CGA:  12    -0.569966425946E+03   -0.82231E-03   -0.82157E-03  3248   0.256E-02 0.141E-04
CGA:  13    -0.569966855739E+03   -0.42979E-03   -0.42984E-03  3248   0.142E-02 0.247E-06
CGA:  14    -0.569967113940E+03   -0.25820E-03   -0.25781E-03  3248   0.116E-02 0.969E-05
CGA:  15    -0.569967251217E+03   -0.13728E-03   -0.13719E-03  3248   0.687E-03 0.101E-05
CGA:  16    -0.569967360252E+03   -0.10904E-03   -0.10897E-03  3248   0.370E-03 0.435E-05
CGA:  17    -0.569967427661E+03   -0.67409E-04   -0.67442E-04  3248   0.231E-03-0.599E-06
CGA:  18    -0.569967470345E+03   -0.42684E-04   -0.42678E-04  3248   0.156E-03-0.329E-07
CGA:  19    -0.569967494521E+03   -0.24176E-04   -0.24183E-04  3248   0.135E-03-0.188E-05
CGA:  20    -0.569967513072E+03   -0.18551E-04   -0.18540E-04  3248   0.781E-04-0.989E-06
CGA:  21    -0.569967525802E+03   -0.12729E-04   -0.12744E-04  3248   0.519E-04-0.107E-05
CGA:  22    -0.569967535211E+03   -0.94095E-05   -0.94039E-05  3248   0.307E-04 0.152E-06
  20 F= -.56996754E+03 E0= -.56995815E+03  d E =-.218266E+00  mag=    69.9860
       N       E                     dE             d eps       ncg     rms          ort
SDA:   1    -0.568954827843E+03    0.10127E+01    0.00000E+00  3248   0.437E+01 0.000E+00
CGA:   2    -0.569479692744E+03   -0.52486E+00   -0.52459E+00  3248   0.195E+01-0.161E-02
CGA:   3    -0.569827648317E+03   -0.34796E+00   -0.34756E+00  3248   0.721E+00 0.103E-01
CGA:   4    -0.569917387350E+03   -0.89739E-01   -0.87891E-01  3248   0.493E+00-0.120E-01
CGA:   5    -0.569965979345E+03   -0.48592E-01   -0.49708E-01  3248   0.106E+00 0.277E-03
CGA:   6    -0.569982779108E+03   -0.16800E-01   -0.16802E-01  3248   0.292E-01-0.112E-03
CGA:   7    -0.569987349345E+03   -0.45702E-02   -0.45691E-02  3248   0.131E-01 0.128E-03
CGA:   8    -0.569988809782E+03   -0.14604E-02   -0.14528E-02  3248   0.653E-02-0.101E-04
CGA:   9    -0.569989680247E+03   -0.87047E-03   -0.87122E-03  3248   0.242E-02 0.249E-04
CGA:  10    -0.569990071013E+03   -0.39077E-03   -0.39095E-03  3248   0.124E-02-0.101E-04
CGA:  11    -0.569990249947E+03   -0.17893E-03   -0.17895E-03  3248   0.740E-03 0.261E-06
CGA:  12    -0.569990362315E+03   -0.11237E-03   -0.11238E-03  3248   0.460E-03-0.415E-05
CGA:  13    -0.569990423120E+03   -0.60805E-04   -0.60837E-04  3248   0.233E-03 0.117E-05
CGA:  14    -0.569990464949E+03   -0.41829E-04   -0.41793E-04  3248   0.154E-03 0.141E-05
CGA:  15    -0.569990488359E+03   -0.23409E-04   -0.23407E-04  3248   0.864E-04 0.259E-05
CGA:  16    -0.569990503598E+03   -0.15240E-04   -0.15209E-04  3248   0.689E-04 0.139E-05
CGA:  17    -0.569990512588E+03   -0.89898E-05   -0.90128E-05  3248   0.359E-04 0.991E-06
  21 F= -.56999051E+03 E0= -.56998212E+03  d E =-.229774E-01  mag=    69.9924
       N       E                     dE             d eps       ncg     rms          ort
SDA:   1    -0.569901745551E+03    0.88758E-01    0.00000E+00  3248   0.363E+00 0.000E+00
CGA:   2    -0.569943080578E+03   -0.41335E-01   -0.40571E-01  3248   0.237E+00-0.225E-02
CGA:   3    -0.569973816007E+03   -0.30735E-01   -0.30885E-01  3248   0.102E+00 0.256E-02
CGA:   4    -0.569986797025E+03   -0.12981E-01   -0.12966E-01  3248   0.315E-01-0.219E-03
CGA:   5    -0.569991976018E+03   -0.51790E-02   -0.51768E-02  3248   0.945E-02 0.704E-04
CGA:   6    -0.569993119683E+03   -0.11437E-02   -0.11403E-02  3248   0.482E-02-0.275E-04
CGA:   7    -0.569993641660E+03   -0.52198E-03   -0.52350E-03  3248   0.110E-02 0.141E-04
CGA:   8    -0.569993821182E+03   -0.17952E-03   -0.17947E-03  3248   0.558E-03 0.458E-05
CGA:   9    -0.569993896917E+03   -0.75735E-04   -0.75809E-04  3248   0.262E-03 0.472E-05
CGA:  10    -0.569993934764E+03   -0.37847E-04   -0.37845E-04  3248   0.123E-03-0.331E-06
CGA:  11    -0.569993952001E+03   -0.17238E-04   -0.17231E-04  3248   0.773E-04-0.119E-05
CGA:  12    -0.569993964878E+03   -0.12877E-04   -0.12939E-04  3248   0.361E-04-0.270E-05
CGA:  13    -0.569993970886E+03   -0.60073E-05   -0.60225E-05  3248   0.266E-04-0.599E-06
  22 F= -.56999397E+03 E0= -.56998578E+03  d E =-.345830E-02  mag=    69.9936
       N       E                     dE             d eps       ncg     rms          ort
SDA:   1    -0.569809028927E+03    0.18494E+00    0.00000E+00  3248   0.678E+00 0.000E+00
CGA:   2    -0.569891402818E+03   -0.82374E-01   -0.80477E-01  3248   0.526E+00-0.161E-01
CGA:   3    -0.569956519783E+03   -0.65117E-01   -0.65524E-01  3248   0.191E+00 0.770E-02
CGA:   4    -0.569984953256E+03   -0.28433E-01   -0.28434E-01  3248   0.559E-01-0.172E-03
CGA:   5    -0.569993784389E+03   -0.88311E-02   -0.88311E-02  3248   0.137E-01-0.880E-05
CGA:   6    -0.569996293318E+03   -0.25089E-02   -0.25080E-02  3248   0.399E-02 0.202E-04
CGA:   7    -0.569996852351E+03   -0.55903E-03   -0.55881E-03  3248   0.179E-02-0.103E-04
CGA:   8    -0.569997090023E+03   -0.23767E-03   -0.23787E-03  3248   0.843E-03 0.773E-05
CGA:   9    -0.569997199782E+03   -0.10976E-03   -0.10973E-03  3248   0.376E-03 0.108E-06
CGA:  10    -0.569997258069E+03   -0.58287E-04   -0.58277E-04  3248   0.170E-03 0.660E-06
CGA:  11    -0.569997292149E+03   -0.34080E-04   -0.34258E-04  3248   0.850E-04-0.321E-05
CGA:  12    -0.569997307447E+03   -0.15298E-04   -0.15352E-04  3248   0.622E-04-0.162E-05
CGA:  13    -0.569997315949E+03   -0.85021E-05   -0.84969E-05  3248   0.336E-04-0.389E-06
  23 F= -.56999732E+03 E0= -.56998929E+03  d E =-.334506E-02  mag=    69.9940
       N       E                     dE             d eps       ncg     rms          ort
SDA:   1    -0.569452943904E+03    0.54436E+00    0.00000E+00  3248   0.178E+01 0.000E+00
CGA:   2    -0.569706909472E+03   -0.25397E+00   -0.25191E+00  3248   0.162E+01-0.956E-01
CGA:   3    -0.569889087036E+03   -0.18218E+00   -0.18585E+00  3248   0.559E+00 0.352E-01
CGA:   4    -0.569966683661E+03   -0.77597E-01   -0.77580E-01  3248   0.160E+00-0.623E-03
CGA:   5    -0.569990832990E+03   -0.24149E-01   -0.24149E-01  3248   0.423E-01-0.122E-04
CGA:   6    -0.569997588520E+03   -0.67555E-02   -0.67504E-02  3248   0.188E-01 0.263E-03
CGA:   7    -0.569999616793E+03   -0.20283E-02   -0.20133E-02  3248   0.568E-02-0.377E-04
CGA:   8    -0.570000553155E+03   -0.93636E-03   -0.93609E-03  3248   0.234E-02 0.651E-05
CGA:   9    -0.570000945754E+03   -0.39260E-03   -0.39277E-03  3248   0.913E-03-0.591E-05
CGA:  10    -0.570001122273E+03   -0.17652E-03   -0.17639E-03  3248   0.469E-03 0.253E-05
CGA:  11    -0.570001210746E+03   -0.88474E-04   -0.88557E-04  3248   0.280E-03-0.202E-05
CGA:  12    -0.570001252674E+03   -0.41927E-04   -0.41927E-04  3248   0.176E-03-0.631E-06
CGA:  13    -0.570001284927E+03   -0.32254E-04   -0.32294E-04  3248   0.848E-04-0.121E-05
CGA:  14    -0.570001301014E+03   -0.16087E-04   -0.16032E-04  3248   0.471E-04 0.149E-05
CGA:  15    -0.570001310270E+03   -0.92558E-05   -0.92093E-05  3248   0.263E-04 0.128E-05
  24 F= -.57000131E+03 E0= -.56999352E+03  d E =-.399432E-02  mag=    69.9943
       N       E                     dE             d eps       ncg     rms          ort
SDA:   1    -0.547272344434E+03    0.22729E+02    0.00000E+00  3248   0.824E+02 0.000E+00
CGA:   2    -0.558487630545E+03   -0.11215E+02   -0.11127E+02  3248   0.578E+02-0.159E+01
CGA:   3    -0.565080891830E+03   -0.65933E+01   -0.69849E+01  3248   0.223E+02 0.370E+01
CGA:   4    -0.568022252427E+03   -0.29414E+01   -0.26830E+01  3248   0.780E+01-0.170E+00
CGA:   5    -0.569325188810E+03   -0.13029E+01   -0.13020E+01  3248   0.200E+01 0.400E-01
CGA:   6    -0.569669050807E+03   -0.34386E+00   -0.34386E+00  3248   0.581E+00 0.388E-03
CGA:   7    -0.569759471894E+03   -0.90421E-01   -0.90421E-01  3248   0.220E+00-0.686E-03
CGA:   8    -0.569790259696E+03   -0.30788E-01   -0.30941E-01  3248   0.152E+00 0.407E-02
CGA:   9    -0.569807204314E+03   -0.16945E-01   -0.16808E-01  3248   0.652E-01-0.298E-03
CGA:  10    -0.569815681849E+03   -0.84775E-02   -0.85152E-02  3248   0.326E-01 0.583E-03
CGA:  11    -0.569821857573E+03   -0.61757E-02   -0.61867E-02  3248   0.163E-01-0.196E-03
CGA:  12    -0.569825048088E+03   -0.31905E-02   -0.31847E-02  3248   0.118E-01 0.107E-03
CGA:  13    -0.569826447127E+03   -0.13990E-02   -0.13951E-02  3248   0.830E-02-0.167E-04
CGA:  14    -0.569827783587E+03   -0.13365E-02   -0.13359E-02  3248   0.377E-02 0.391E-04
CGA:  15    -0.569828531745E+03   -0.74816E-03   -0.74882E-03  3248   0.279E-02-0.146E-04
CGA:  16    -0.569828999542E+03   -0.46780E-03   -0.46773E-03  3248   0.192E-02 0.186E-06
CGA:  17    -0.569829258142E+03   -0.25860E-03   -0.25835E-03  3248   0.143E-02-0.614E-05
CGA:  18    -0.569829469751E+03   -0.21161E-03   -0.21168E-03  3248   0.690E-03 0.556E-05
CGA:  19    -0.569829618516E+03   -0.14877E-03   -0.14857E-03  3248   0.489E-03 0.385E-05
CGA:  20    -0.569829697330E+03   -0.78814E-04   -0.78805E-04  3248   0.330E-03 0.480E-05
CGA:  21    -0.569829739801E+03   -0.42470E-04   -0.42454E-04  3248   0.208E-03 0.478E-07
CGA:  22    -0.569829773176E+03   -0.33376E-04   -0.33380E-04  3248   0.110E-03-0.116E-05
CGA:  23    -0.569829793343E+03   -0.20167E-04   -0.20266E-04  3248   0.786E-04-0.356E-05
CGA:  24    -0.569829806297E+03   -0.12954E-04   -0.12983E-04  3248   0.626E-04-0.251E-05
CGA:  25    -0.569829814504E+03   -0.82072E-05   -0.81667E-05  3248   0.463E-04-0.163E-05
  25 F= -.56982981E+03 E0= -.56981836E+03  d E =0.171496E+00  mag=    69.9041
       N       E                     dE             d eps       ncg     rms          ort
SDA:   1    -0.560767760346E+03    0.90620E+01    0.00000E+00  3248   0.395E+02 0.000E+00
CGA:   2    -0.565669387242E+03   -0.49016E+01   -0.48710E+01  3248   0.165E+02-0.129E+00
CGA:   3    -0.568571403291E+03   -0.29020E+01   -0.29001E+01  3248   0.538E+01 0.637E-01
CGA:   4    -0.569587969064E+03   -0.10166E+01   -0.10181E+01  3248   0.197E+01-0.338E-01
CGA:   5    -0.569851490509E+03   -0.26352E+00   -0.26653E+00  3248   0.654E+00 0.411E-01
CGA:   6    -0.569947997255E+03   -0.96507E-01   -0.95903E-01  3248   0.204E+00-0.151E-01
CGA:   7    -0.569976146851E+03   -0.28150E-01   -0.28306E-01  3248   0.750E-01 0.367E-02
CGA:   8    -0.569989603949E+03   -0.13457E-01   -0.13499E-01  3248   0.297E-01-0.130E-02
CGA:   9    -0.569994902382E+03   -0.52984E-02   -0.52903E-02  3248   0.133E-01 0.231E-03
CGA:  10    -0.569997264156E+03   -0.23618E-02   -0.23664E-02  3248   0.840E-02-0.170E-03
CGA:  11    -0.569998692188E+03   -0.14280E-02   -0.14270E-02  3248   0.381E-02 0.484E-04
CGA:  12    -0.569999591838E+03   -0.89965E-03   -0.90097E-03  3248   0.228E-02-0.141E-04
CGA:  13    -0.570000007655E+03   -0.41582E-03   -0.41529E-03  3248   0.159E-02 0.214E-04
CGA:  14    -0.570000313662E+03   -0.30601E-03   -0.30601E-03  3248   0.811E-03 0.362E-05
CGA:  15    -0.570000490516E+03   -0.17685E-03   -0.17630E-03  3248   0.515E-03 0.101E-04
CGA:  16    -0.570000590824E+03   -0.10031E-03   -0.10037E-03  3248   0.335E-03-0.154E-05
CGA:  17    -0.570000659453E+03   -0.68629E-04   -0.68731E-04  3248   0.201E-03-0.323E-05
CGA:  18    -0.570000699519E+03   -0.40066E-04   -0.40221E-04  3248   0.131E-03-0.504E-05
CGA:  19    -0.570000725554E+03   -0.26035E-04   -0.26094E-04  3248   0.711E-04-0.209E-05
CGA:  20    -0.570000739118E+03   -0.13564E-04   -0.13566E-04  3248   0.433E-04-0.705E-07
CGA:  21    -0.570000747179E+03   -0.80608E-05   -0.80493E-05  3248   0.240E-04 0.115E-05
  26 F= -.57000075E+03 E0= -.56999228E+03  d E =-.170933E+00  mag=    69.9491
       N       E                     dE             d eps       ncg     rms          ort
SDA:   1    -0.569844285189E+03    0.15645E+00    0.00000E+00  3248   0.549E+00 0.000E+00
CGA:   2    -0.569934975890E+03   -0.90691E-01   -0.90668E-01  3248   0.320E+00-0.644E-03
CGA:   3    -0.569986465396E+03   -0.51490E-01   -0.51505E-01  3248   0.108E+00 0.341E-03
CGA:   4    -0.570004598910E+03   -0.18134E-01   -0.18129E-01  3248   0.347E-01-0.234E-03
CGA:   5    -0.570009217190E+03   -0.46183E-02   -0.46407E-02  3248   0.121E-01 0.901E-04
CGA:   6    -0.570010933904E+03   -0.17167E-02   -0.17142E-02  3248   0.303E-02-0.156E-04
CGA:   7    -0.570011416571E+03   -0.48267E-03   -0.48298E-03  3248   0.118E-02 0.137E-04
CGA:   8    -0.570011620960E+03   -0.20439E-03   -0.20439E-03  3248   0.490E-03 0.162E-05
CGA:   9    -0.570011703166E+03   -0.82206E-04   -0.82223E-04  3248   0.222E-03 0.233E-05
CGA:  10    -0.570011744453E+03   -0.41287E-04   -0.41302E-04  3248   0.109E-03-0.105E-05
CGA:  11    -0.570011764866E+03   -0.20413E-04   -0.20432E-04  3248   0.581E-04-0.128E-05
CGA:  12    -0.570011775779E+03   -0.10913E-04   -0.10929E-04  3248   0.325E-04-0.960E-06
CGA:  13    -0.570011781850E+03   -0.60705E-05   -0.60598E-05  3248   0.162E-04 0.690E-06
  27 F= -.57001178E+03 E0= -.57000357E+03  d E =-.110347E-01  mag=    69.9592
       N       E                     dE             d eps       ncg     rms          ort
SDA:   1    -0.569615124312E+03    0.39665E+00    0.00000E+00  3248   0.125E+01 0.000E+00
CGA:   2    -0.569839279326E+03   -0.22416E+00   -0.22416E+00  3248   0.802E+00-0.249E-02
CGA:   3    -0.569963876179E+03   -0.12460E+00   -0.12466E+00  3248   0.224E+00 0.105E-02
CGA:   4    -0.570004042352E+03   -0.40166E-01   -0.40167E-01  3248   0.689E-01-0.254E-03
CGA:   5    -0.570014254500E+03   -0.10212E-01   -0.10228E-01  3248   0.223E-01 0.194E-03
CGA:   6    -0.570017386740E+03   -0.31322E-02   -0.31286E-02  3248   0.541E-02-0.157E-04
CGA:   7    -0.570018353704E+03   -0.96696E-03   -0.96672E-03  3248   0.217E-02 0.260E-04
CGA:   8    -0.570018737914E+03   -0.38421E-03   -0.38422E-03  3248   0.891E-03-0.475E-06
CGA:   9    -0.570018895328E+03   -0.15741E-03   -0.15740E-03  3248   0.395E-03 0.354E-05
CGA:  10    -0.570018974726E+03   -0.79398E-04   -0.79494E-04  3248   0.182E-03-0.330E-05
CGA:  11    -0.570019011063E+03   -0.36336E-04   -0.36384E-04  3248   0.973E-04-0.195E-05
CGA:  12    -0.570019029552E+03   -0.18490E-04   -0.18493E-04  3248   0.473E-04-0.139E-06
CGA:  13    -0.570019038852E+03   -0.92999E-05   -0.92609E-05  3248   0.211E-04 0.207E-05
  28 F= -.57001904E+03 E0= -.57001121E+03  d E =-.725700E-02  mag=    69.9778
       N       E                     dE             d eps       ncg     rms          ort
SDA:   1    -0.569980607677E+03    0.38422E-01    0.00000E+00  3248   0.118E+00 0.000E+00
CGA:   2    -0.570002243112E+03   -0.21635E-01   -0.21643E-01  3248   0.839E-01-0.925E-03
CGA:   3    -0.570014179591E+03   -0.11936E-01   -0.11992E-01  3248   0.261E-01 0.391E-03
CGA:   4    -0.570018361949E+03   -0.41824E-02   -0.41807E-02  3248   0.722E-02-0.440E-04
CGA:   5    -0.570019492949E+03   -0.11310E-02   -0.11317E-02  3248   0.223E-02 0.126E-04
CGA:   6    -0.570019834401E+03   -0.34145E-03   -0.34134E-03  3248   0.512E-03-0.154E-05
CGA:   7    -0.570019928144E+03   -0.93742E-04   -0.93727E-04  3248   0.228E-03 0.135E-05
CGA:   8    -0.570019965514E+03   -0.37370E-04   -0.37368E-04  3248   0.862E-04-0.269E-07
CGA:   9    -0.570019982430E+03   -0.16917E-04   -0.16901E-04  3248   0.396E-04 0.694E-06
CGA:  10    -0.570019990458E+03   -0.80280E-05   -0.80330E-05  3248   0.196E-04-0.217E-06
  29 F= -.57001999E+03 E0= -.57001221E+03  d E =-.951606E-03  mag=    69.9805
       N       E                     dE             d eps       ncg     rms          ort
SDA:   1    -0.569806453360E+03    0.21353E+00    0.00000E+00  3248   0.616E+00 0.000E+00
CGA:   2    -0.569930064190E+03   -0.12361E+00   -0.12365E+00  3248   0.416E+00-0.992E-03
CGA:   3    -0.569993783110E+03   -0.63719E-01   -0.63756E-01  3248   0.123E+00 0.439E-03
CGA:   4    -0.570013575739E+03   -0.19793E-01   -0.19790E-01  3248   0.315E-01-0.644E-04
CGA:   5    -0.570018628617E+03   -0.50529E-02   -0.50552E-02  3248   0.109E-01 0.575E-04
CGA:   6    -0.570020200141E+03   -0.15715E-02   -0.15704E-02  3248   0.253E-02-0.115E-04
CGA:   7    -0.570020704451E+03   -0.50431E-03   -0.50434E-03  3248   0.952E-03-0.306E-05
CGA:   8    -0.570020873881E+03   -0.16943E-03   -0.16944E-03  3248   0.408E-03-0.271E-05
CGA:   9    -0.570020949503E+03   -0.75622E-04   -0.75597E-04  3248   0.188E-03 0.227E-05
CGA:  10    -0.570020987247E+03   -0.37743E-04   -0.37743E-04  3248   0.889E-04 0.109E-06
CGA:  11    -0.570021008100E+03   -0.20853E-04   -0.20848E-04  3248   0.474E-04 0.794E-07
CGA:  12    -0.570021017702E+03   -0.96026E-05   -0.96041E-05  3248   0.266E-04-0.733E-07
  30 F= -.57002102E+03 E0= -.57001336E+03  d E =-.102724E-02  mag=    69.9845
       N       E                     dE             d eps       ncg     rms          ort
SDA:   1    -0.569469423488E+03    0.55158E+00    0.00000E+00  3248   0.180E+01 0.000E+00
CGA:   2    -0.569752641472E+03   -0.28322E+00   -0.28259E+00  3248   0.116E+01-0.783E-02
CGA:   3    -0.569941858106E+03   -0.18922E+00   -0.18957E+00  3248   0.358E+00 0.781E-02
CGA:   4    -0.570000459364E+03   -0.58601E-01   -0.58553E-01  3248   0.104E+00-0.101E-02
CGA:   5    -0.570014896582E+03   -0.14437E-01   -0.14548E-01  3248   0.326E-01 0.674E-03
CGA:   6    -0.570020230539E+03   -0.53340E-02   -0.53289E-02  3248   0.761E-02-0.135E-03
CGA:   7    -0.570021722912E+03   -0.14924E-02   -0.14921E-02  3248   0.294E-02 0.436E-05
CGA:   8    -0.570022227095E+03   -0.50418E-03   -0.50405E-03  3248   0.121E-02-0.108E-04
CGA:   9    -0.570022458450E+03   -0.23136E-03   -0.23123E-03  3248   0.593E-03 0.642E-05
CGA:  10    -0.570022582172E+03   -0.12372E-03   -0.12375E-03  3248   0.301E-03-0.530E-06
CGA:  11    -0.570022654543E+03   -0.72371E-04   -0.72367E-04  3248   0.177E-03-0.750E-07
CGA:  12    -0.570022690450E+03   -0.35908E-04   -0.35932E-04  3248   0.104E-03-0.105E-05
CGA:  13    -0.570022712939E+03   -0.22489E-04   -0.22474E-04  3248   0.518E-04 0.357E-06
CGA:  14    -0.570022724834E+03   -0.11895E-04   -0.11905E-04  3248   0.290E-04-0.214E-06
CGA:  15    -0.570022730930E+03   -0.60963E-05   -0.60911E-05  3248   0.180E-04 0.233E-06
  31 F= -.57002273E+03 E0= -.57001503E+03  d E =-.171323E-02  mag=    69.9833
       N       E                     dE             d eps       ncg     rms          ort
SDA:   1    -0.552372813505E+03    0.17650E+02    0.00000E+00  3248   0.500E+02 0.000E+00
CGA:   2    -0.562849374733E+03   -0.10477E+02   -0.10501E+02  3248   0.355E+02-0.783E+00
CGA:   3    -0.567552034168E+03   -0.47027E+01   -0.47700E+01  3248   0.932E+01 0.116E+01
CGA:   4    -0.569239606751E+03   -0.16876E+01   -0.16838E+01  3248   0.284E+01-0.827E-01
CGA:   5    -0.569687298609E+03   -0.44769E+00   -0.44840E+00  3248   0.833E+00 0.917E-02
CGA:   6    -0.569810655879E+03   -0.12336E+00   -0.12338E+00  3248   0.205E+00 0.816E-03
CGA:   7    -0.569852657358E+03   -0.42001E-01   -0.41989E-01  3248   0.851E-01 0.327E-03
CGA:   8    -0.569868576145E+03   -0.15919E-01   -0.15918E-01  3248   0.345E-01 0.380E-03
CGA:   9    -0.569875324922E+03   -0.67488E-02   -0.67453E-02  3248   0.189E-01 0.222E-03
CGA:  10    -0.569878561015E+03   -0.32361E-02   -0.32309E-02  3248   0.874E-02-0.123E-03
CGA:  11    -0.569880624348E+03   -0.20633E-02   -0.20617E-02  3248   0.409E-02 0.205E-04
CGA:  12    -0.569881601867E+03   -0.97752E-03   -0.97815E-03  3248   0.240E-02-0.913E-05
CGA:  13    -0.569882062003E+03   -0.46014E-03   -0.46012E-03  3248   0.146E-02 0.732E-05
CGA:  14    -0.569882367865E+03   -0.30586E-03   -0.30588E-03  3248   0.746E-03-0.514E-06
CGA:  15    -0.569882577227E+03   -0.20936E-03   -0.20908E-03  3248   0.505E-03 0.316E-05
CGA:  16    -0.569882695919E+03   -0.11869E-03   -0.11867E-03  3248   0.388E-03 0.705E-06
CGA:  17    -0.569882775431E+03   -0.79512E-04   -0.79509E-04  3248   0.205E-03 0.391E-06
CGA:  18    -0.569882825793E+03   -0.50362E-04   -0.50397E-04  3248   0.105E-03-0.730E-06
CGA:  19    -0.569882847958E+03   -0.22165E-04   -0.22170E-04  3248   0.584E-04-0.396E-06
CGA:  20    -0.569882859229E+03   -0.11271E-04   -0.11266E-04  3248   0.283E-04-0.631E-06
CGA:  21    -0.569882865956E+03   -0.67272E-05   -0.67639E-05  3248   0.155E-04-0.908E-06
  32 F= -.56988287E+03 E0= -.56987455E+03  d E =0.139865E+00  mag=    69.9716
       N       E                     dE             d eps       ncg     rms          ort
SDA:   1    -0.564873044096E+03    0.50098E+01    0.00000E+00  3248   0.178E+02 0.000E+00
CGA:   2    -0.567478606789E+03   -0.26056E+01   -0.25882E+01  3248   0.104E+02-0.313E-01
CGA:   3    -0.569196675399E+03   -0.17181E+01   -0.17245E+01  3248   0.340E+01 0.573E-01
CGA:   4    -0.569725821987E+03   -0.52915E+00   -0.51405E+00  3248   0.168E+01-0.518E-01
CGA:   5    -0.569896925232E+03   -0.17110E+00   -0.18998E+00  3248   0.448E+00-0.380E-01
CGA:   6    -0.569967582821E+03   -0.70658E-01   -0.70049E-01  3248   0.117E+00-0.535E-02
CGA:   7    -0.569984824572E+03   -0.17242E-01   -0.17400E-01  3248   0.460E-01 0.959E-03
CGA:   8    -0.569992140006E+03   -0.73154E-02   -0.72743E-02  3248   0.213E-01-0.345E-03
CGA:   9    -0.569995352474E+03   -0.32125E-02   -0.32279E-02  3248   0.808E-02 0.133E-03
CGA:  10    -0.569996929615E+03   -0.15771E-02   -0.15778E-02  3248   0.401E-02-0.446E-04
CGA:  11    -0.569997591579E+03   -0.66196E-03   -0.66289E-03  3248   0.226E-02 0.189E-04
CGA:  12    -0.569997988945E+03   -0.39737E-03   -0.39719E-03  3248   0.105E-02-0.703E-05
CGA:  13    -0.569998205311E+03   -0.21637E-03   -0.21613E-03  3248   0.638E-03 0.849E-05
CGA:  14    -0.569998316274E+03   -0.11096E-03   -0.11095E-03  3248   0.381E-03 0.928E-06
CGA:  15    -0.569998391296E+03   -0.75022E-04   -0.74979E-04  3248   0.196E-03 0.319E-05
CGA:  16    -0.569998432531E+03   -0.41235E-04   -0.41260E-04  3248   0.149E-03-0.884E-06
CGA:  17    -0.569998459949E+03   -0.27418E-04   -0.27417E-04  3248   0.888E-04-0.639E-06
CGA:  18    -0.569998480203E+03   -0.20254E-04   -0.20324E-04  3248   0.636E-04-0.158E-05
CGA:  19    -0.569998492016E+03   -0.11814E-04   -0.11814E-04  3248   0.418E-04-0.460E-06
CGA:  20    -0.569998500638E+03   -0.86212E-05   -0.86323E-05  3248   0.246E-04-0.569E-06
  33 F= -.56999850E+03 E0= -.56998947E+03  d E =-.115635E+00  mag=    69.9507
       N       E                     dE             d eps       ncg     rms          ort
SDA:   1    -0.569832482278E+03    0.16601E+00    0.00000E+00  3248   0.609E+00 0.000E+00
CGA:   2    -0.569925196758E+03   -0.92714E-01   -0.92638E-01  3248   0.369E+00-0.472E-03
CGA:   3    -0.569985774401E+03   -0.60578E-01   -0.60583E-01  3248   0.100E+00 0.694E-04
CGA:   4    -0.570004401338E+03   -0.18627E-01   -0.18627E-01  3248   0.326E-01-0.182E-03
CGA:   5    -0.570009028863E+03   -0.46275E-02   -0.46399E-02  3248   0.107E-01 0.628E-04
CGA:   6    -0.570010455365E+03   -0.14265E-02   -0.14212E-02  3248   0.295E-02-0.112E-04
CGA:   7    -0.570010917699E+03   -0.46233E-03   -0.46297E-03  3248   0.112E-02 0.746E-05
CGA:   8    -0.570011123774E+03   -0.20607E-03   -0.20609E-03  3248   0.411E-03-0.368E-05
CGA:   9    -0.570011200292E+03   -0.76517E-04   -0.76499E-04  3248   0.221E-03 0.270E-05
CGA:  10    -0.570011236941E+03   -0.36649E-04   -0.36657E-04  3248   0.103E-03 0.772E-06
CGA:  11    -0.570011257941E+03   -0.21000E-04   -0.20986E-04  3248   0.530E-04 0.568E-06
CGA:  12    -0.570011268866E+03   -0.10925E-04   -0.10928E-04  3248   0.300E-04-0.549E-07
CGA:  13    -0.570011274473E+03   -0.56069E-05   -0.56044E-05  3248   0.178E-04 0.511E-06
  34 F= -.57001127E+03 E0= -.57000267E+03  d E =-.127738E-01  mag=    69.9505
       N       E                     dE             d eps       ncg     rms          ort
SDA:   1    -0.568680605617E+03    0.13307E+01    0.00000E+00  3248   0.430E+01 0.000E+00
CGA:   2    -0.569405352504E+03   -0.72475E+00   -0.72429E+00  3248   0.280E+01-0.118E-01
CGA:   3    -0.569839393698E+03   -0.43404E+00   -0.43415E+00  3248   0.745E+00 0.119E-02
CGA:   4    -0.569978724095E+03   -0.13933E+00   -0.13933E+00  3248   0.215E+00-0.168E-03
CGA:   5    -0.570013283260E+03   -0.34559E-01   -0.34580E-01  3248   0.633E-01 0.395E-03
CGA:   6    -0.570022322046E+03   -0.90388E-02   -0.90239E-02  3248   0.165E-01-0.843E-04
CGA:   7    -0.570025468861E+03   -0.31468E-02   -0.31457E-02  3248   0.605E-02 0.490E-04
CGA:   8    -0.570026639740E+03   -0.11709E-02   -0.11713E-02  3248   0.235E-02-0.180E-04
CGA:   9    -0.570027125994E+03   -0.48625E-03   -0.48579E-03  3248   0.112E-02 0.129E-04
CGA:  10    -0.570027342407E+03   -0.21641E-03   -0.21644E-03  3248   0.574E-03-0.387E-06
CGA:  11    -0.570027463173E+03   -0.12077E-03   -0.12069E-03  3248   0.264E-03 0.227E-05
CGA:  12    -0.570027525282E+03   -0.62110E-04   -0.62092E-04  3248   0.138E-03 0.439E-06
CGA:  13    -0.570027556320E+03   -0.31037E-04   -0.30976E-04  3248   0.781E-04 0.150E-05
CGA:  14    -0.570027573089E+03   -0.16769E-04   -0.16755E-04  3248   0.471E-04 0.644E-06
CGA:  15    -0.570027584703E+03   -0.11614E-04   -0.11566E-04  3248   0.283E-04 0.893E-06
CGA:  16    -0.570027592678E+03   -0.79754E-05   -0.79662E-05  3248   0.196E-04 0.123E-06
  35 F= -.57002759E+03 E0= -.57001983E+03  d E =-.163182E-01  mag=    69.9697
       N       E                     dE             d eps       ncg     rms          ort
SDA:   1    -0.569988229875E+03    0.39355E-01    0.00000E+00  3248   0.134E+00 0.000E+00
CGA:   2    -0.570009366301E+03   -0.21136E-01   -0.21152E-01  3248   0.822E-01 0.977E-04
CGA:   3    -0.570022747711E+03   -0.13381E-01   -0.13373E-01  3248   0.221E-01-0.764E-04
CGA:   4    -0.570026932897E+03   -0.41852E-02   -0.41853E-02  3248   0.633E-02 0.632E-05
CGA:   5    -0.570027943389E+03   -0.10105E-02   -0.10104E-02  3248   0.192E-02-0.417E-07
CGA:   6    -0.570028230819E+03   -0.28743E-03   -0.28732E-03  3248   0.501E-03-0.276E-05
CGA:   7    -0.570028324428E+03   -0.93609E-04   -0.93600E-04  3248   0.180E-03-0.323E-05
CGA:   8    -0.570028360179E+03   -0.35751E-04   -0.35762E-04  3248   0.667E-04-0.107E-05
CGA:   9    -0.570028374088E+03   -0.13909E-04   -0.13901E-04  3248   0.357E-04 0.393E-06
CGA:  10    -0.570028380245E+03   -0.61572E-05   -0.61691E-05  3248   0.168E-04 0.580E-06
  36 F= -.57002838E+03 E0= -.57002073E+03  d E =-.787567E-03  mag=    69.9756
