       N       E                     dE             d eps       ncg     rms          ort
DAV:   1     0.964259411120E+04    0.96426E+04   -0.32121E+05  3248   0.180E+03
DAV:   2     0.102735459762E+04   -0.86152E+04   -0.81857E+04  3248   0.554E+02
DAV:   3    -0.495641565732E+03   -0.15230E+04   -0.14141E+04  3248   0.227E+02
DAV:   4    -0.690593341465E+03   -0.19495E+03   -0.18724E+03  3248   0.920E+01
DAV:   5    -0.700821315273E+03   -0.10228E+02   -0.99155E+01  3248   0.256E+01
SDA:   6    -0.192081979012E+03    0.50874E+03   -0.99155E+01  3248   0.299E+04 0.000E+00
CGA:   7    -0.490347803515E+03   -0.29827E+03   -0.34567E+03  3248   0.665E+03 0.190E+02
CGA:   8    -0.523294819543E+03   -0.32947E+02   -0.37966E+02  3248   0.162E+03 0.250E+02
CGA:   9    -0.541740880895E+03   -0.18446E+02   -0.14561E+02  3248   0.104E+03-0.209E+02
CGA:  10    -0.547128983639E+03   -0.53881E+01   -0.73686E+01  3248   0.189E+03-0.141E+02
CGA:  11    -0.549874242930E+03   -0.27453E+01   -0.74334E+01  3248   0.984E+02-0.668E+02
CGA:  12    -0.552374460118E+03   -0.25002E+01   -0.37127E+01  3248   0.166E+03-0.525E+02
CGA:  13    -0.554881387684E+03   -0.25069E+01   -0.12242E+02  3248   0.168E+03-0.404E+02
CGA:  14    -0.562844070787E+03   -0.79627E+01   -0.74210E+01  3248   0.640E+02-0.688E+02
CGA:  15    -0.564990081352E+03   -0.21460E+01   -0.20519E+01  3248   0.189E+02 0.345E+01
CGA:  16    -0.565548605329E+03   -0.55852E+00   -0.12629E+01  3248   0.352E+02-0.640E+01
CGA:  17    -0.566852409512E+03   -0.13038E+01   -0.14345E+01  3248   0.205E+02-0.120E+01
CGA:  18    -0.567645029650E+03   -0.79262E+00   -0.81923E+00  3248   0.123E+02-0.810E+00
CGA:  19    -0.567937992397E+03   -0.29296E+00   -0.56095E+00  3248   0.103E+02-0.386E+01
CGA:  20    -0.568539600511E+03   -0.60161E+00   -0.66655E+00  3248   0.499E+01 0.374E+00
CGA:  21    -0.568831478792E+03   -0.29188E+00   -0.30451E+00  3248   0.114E+01-0.106E+00
CGA:  22    -0.568905455391E+03   -0.73977E-01   -0.83912E-01  3248   0.753E+00-0.246E-01
CGA:  23    -0.568994848324E+03   -0.89393E-01   -0.89376E-01  3248   0.478E+00-0.202E-02
CGA:  24    -0.569053467590E+03   -0.58619E-01   -0.58610E-01  3248   0.271E+00-0.255E-02
CGA:  25    -0.569084640613E+03   -0.31173E-01   -0.31350E-01  3248   0.203E+00 0.888E-02
CGA:  26    -0.569110228595E+03   -0.25588E-01   -0.25578E-01  3248   0.175E+00-0.248E-02
CGA:  27    -0.569137475582E+03   -0.27247E-01   -0.27187E-01  3248   0.145E+00 0.101E-02
CGA:  28    -0.569156507347E+03   -0.19032E-01   -0.18994E-01  3248   0.837E-01 0.414E-02
CGA:  29    -0.569167949598E+03   -0.11442E-01   -0.11455E-01  3248   0.576E-01-0.113E-02
CGA:  30    -0.569176863687E+03   -0.89141E-02   -0.88939E-02  3248   0.384E-01 0.359E-03
CGA:  31    -0.569181661963E+03   -0.47983E-02   -0.47968E-02  3248   0.278E-01-0.301E-03
CGA:  32    -0.569185228048E+03   -0.35661E-02   -0.35669E-02  3248   0.205E-01-0.384E-03
CGA:  33    -0.569188361698E+03   -0.31336E-02   -0.31313E-02  3248   0.144E-01 0.101E-04
CGA:  34    -0.569190565650E+03   -0.22040E-02   -0.22083E-02  3248   0.111E-01-0.139E-03
CGA:  35    -0.569192011236E+03   -0.14456E-02   -0.14456E-02  3248   0.658E-02 0.560E-05
CGA:  36    -0.569192949070E+03   -0.93783E-03   -0.93810E-03  3248   0.512E-02 0.395E-05
CGA:  37    -0.569193541298E+03   -0.59223E-03   -0.59323E-03  3248   0.274E-02 0.503E-04
CGA:  38    -0.569193924804E+03   -0.38351E-03   -0.38321E-03  3248   0.208E-02 0.364E-04
CGA:  39    -0.569194184787E+03   -0.25998E-03   -0.26012E-03  3248   0.968E-03 0.232E-04
CGA:  40    -0.569194359394E+03   -0.17461E-03   -0.17355E-03  3248   0.907E-03 0.218E-04
CGA:  41    -0.569194480098E+03   -0.12070E-03   -0.12074E-03  3248   0.575E-03 0.146E-04
CGA:  42    -0.569194550412E+03   -0.70314E-04   -0.70456E-04  3248   0.426E-03 0.117E-04
SDA:  43    -0.569194623431E+03   -0.73019E-04   -0.72443E-04  3248   0.323E-03 0.166E-04
CGA:  44    -0.569194647078E+03   -0.23647E-04   -0.23641E-04  3248   0.136E-03-0.191E-07
CGA:  45    -0.569194679041E+03   -0.31963E-04   -0.31825E-04  3248   0.191E-03 0.132E-05
CGA:  46    -0.569194710350E+03   -0.31309E-04   -0.31313E-04  3248   0.159E-03-0.150E-06
CGA:  47    -0.569194738269E+03   -0.27919E-04   -0.28017E-04  3248   0.145E-03-0.246E-05
CGA:  48    -0.569194754997E+03   -0.16728E-04   -0.16674E-04  3248   0.998E-04-0.246E-05
CGA:  49    -0.569194773388E+03   -0.18392E-04   -0.18551E-04  3248   0.775E-04-0.310E-05
CGA:  50    -0.569194788755E+03   -0.15366E-04   -0.15405E-04  3248   0.660E-04-0.612E-06
CGA:  51    -0.569194801557E+03   -0.12803E-04   -0.12674E-04  3248   0.396E-04 0.257E-05
CGA:  52    -0.569194807590E+03   -0.60327E-05   -0.60311E-05  3248   0.447E-04 0.323E-05
   1 F= -.56919481E+03 E0= -.56918100E+03  d E =-.569195E+03  mag=    70.0000
       N       E                     dE             d eps       ncg     rms          ort
SDA:   1    -0.569196555321E+03   -0.17538E-02    0.00000E+00  3248   0.182E-01 0.000E+00
CGA:   2    -0.569198200427E+03   -0.16451E-02   -0.16444E-02  3248   0.117E-01 0.126E-04
CGA:   3    -0.569199548748E+03   -0.13483E-02   -0.13483E-02  3248   0.452E-02 0.264E-05
CGA:   4    -0.569200064504E+03   -0.51576E-03   -0.51547E-03  3248   0.179E-02-0.108E-04
CGA:   5    -0.569200326176E+03   -0.26167E-03   -0.26175E-03  3248   0.903E-03-0.112E-04
CGA:   6    -0.569200418019E+03   -0.91843E-04   -0.91764E-04  3248   0.296E-03-0.168E-05
CGA:   7    -0.569200447777E+03   -0.29758E-04   -0.29829E-04  3248   0.149E-03 0.192E-05
CGA:   8    -0.569200464325E+03   -0.16548E-04   -0.16623E-04  3248   0.515E-04 0.293E-05
CGA:   9    -0.569200473540E+03   -0.92152E-05   -0.91227E-05  3248   0.408E-04 0.240E-05
   2 F= -.56920047E+03 E0= -.56918669E+03  d E =-.566595E-02  mag=    70.0000
       N       E                     dE             d eps       ncg     rms          ort
SDA:   1    -0.543937519537E+03    0.25263E+02    0.00000E+00  3248   0.936E+02 0.000E+00
CGA:   2    -0.558113205861E+03   -0.14176E+02   -0.14142E+02  3248   0.552E+02 0.156E+01
CGA:   3    -0.564824937696E+03   -0.67117E+01   -0.67163E+01  3248   0.220E+02-0.155E+00
CGA:   4    -0.567192819718E+03   -0.23679E+01   -0.22538E+01  3248   0.129E+02-0.108E+01
CGA:   5    -0.568762738329E+03   -0.15699E+01   -0.15662E+01  3248   0.394E+01-0.262E+00
CGA:   6    -0.569141960796E+03   -0.37922E+00   -0.37178E+00  3248   0.200E+01-0.485E-01
CGA:   7    -0.569350245556E+03   -0.20828E+00   -0.20957E+00  3248   0.458E+00 0.120E-01
CGA:   8    -0.569406637955E+03   -0.56392E-01   -0.56414E-01  3248   0.420E+00 0.112E-02
CGA:   9    -0.569445783940E+03   -0.39146E-01   -0.39695E-01  3248   0.139E+00 0.188E-02
CGA:  10    -0.569466783787E+03   -0.21000E-01   -0.20997E-01  3248   0.821E-01 0.155E-03
CGA:  11    -0.569477912209E+03   -0.11128E-01   -0.11116E-01  3248   0.579E-01 0.124E-02
CGA:  12    -0.569485918059E+03   -0.80058E-02   -0.80045E-02  3248   0.443E-01 0.122E-03
CGA:  13    -0.569491431462E+03   -0.55134E-02   -0.55174E-02  3248   0.252E-01 0.255E-03
CGA:  14    -0.569495360490E+03   -0.39290E-02   -0.39283E-02  3248   0.238E-01-0.627E-06
CGA:  15    -0.569498563882E+03   -0.32034E-02   -0.32031E-02  3248   0.115E-01 0.380E-04
CGA:  16    -0.569500783538E+03   -0.22197E-02   -0.22185E-02  3248   0.882E-02 0.242E-04
CGA:  17    -0.569501991129E+03   -0.12076E-02   -0.12074E-02  3248   0.641E-02 0.611E-04
CGA:  18    -0.569502902648E+03   -0.91152E-03   -0.91136E-03  3248   0.452E-02 0.306E-04
CGA:  19    -0.569503515345E+03   -0.61270E-03   -0.61270E-03  3248   0.265E-02 0.185E-04
CGA:  20    -0.569503913571E+03   -0.39823E-03   -0.39848E-03  3248   0.198E-02-0.141E-04
CGA:  21    -0.569504186235E+03   -0.27266E-03   -0.27271E-03  3248   0.107E-02-0.196E-04
CGA:  22    -0.569504362984E+03   -0.17675E-03   -0.17747E-03  3248   0.609E-03-0.220E-04
CGA:  23    -0.569504435023E+03   -0.72039E-04   -0.71892E-04  3248   0.422E-03-0.881E-05
CGA:  24    -0.569504490711E+03   -0.55688E-04   -0.55672E-04  3248   0.201E-03-0.502E-05
CGA:  25    -0.569504517315E+03   -0.26604E-04   -0.26608E-04  3248   0.142E-03 0.121E-05
CGA:  26    -0.569504538004E+03   -0.20689E-04   -0.20663E-04  3248   0.675E-04 0.317E-05
CGA:  27    -0.569504548936E+03   -0.10932E-04   -0.10872E-04  3248   0.582E-04 0.287E-05
CGA:  28    -0.569504558160E+03   -0.92244E-05   -0.91966E-05  3248   0.413E-04 0.202E-05
   3 F= -.56950456E+03 E0= -.56949267E+03  d E =-.304085E+00  mag=    70.0000
       N       E                     dE             d eps       ncg     rms          ort
SDA:   1    -0.555385780137E+03    0.14119E+02    0.00000E+00  3248   0.500E+02 0.000E+00
CGA:   2    -0.563493509103E+03   -0.81077E+01   -0.81061E+01  3248   0.305E+02 0.190E+00
CGA:   3    -0.567036960490E+03   -0.35435E+01   -0.35701E+01  3248   0.121E+02 0.202E+00
CGA:   4    -0.568471332606E+03   -0.14344E+01   -0.14075E+01  3248   0.698E+01-0.456E+00
CGA:   5    -0.569251295546E+03   -0.77996E+00   -0.77784E+00  3248   0.226E+01-0.515E-01
CGA:   6    -0.569464793737E+03   -0.21350E+00   -0.21360E+00  3248   0.933E+00-0.946E-02
CGA:   7    -0.569571442886E+03   -0.10665E+00   -0.10694E+00  3248   0.246E+00 0.451E-02
CGA:   8    -0.569606857656E+03   -0.35415E-01   -0.35447E-01  3248   0.167E+00-0.197E-02
CGA:   9    -0.569625559126E+03   -0.18701E-01   -0.18776E-01  3248   0.795E-01 0.112E-02
CGA:  10    -0.569634342664E+03   -0.87835E-02   -0.87735E-02  3248   0.459E-01-0.932E-04
CGA:  11    -0.569641037129E+03   -0.66945E-02   -0.66886E-02  3248   0.245E-01 0.271E-03
CGA:  12    -0.569646070164E+03   -0.50330E-02   -0.50367E-02  3248   0.210E-01-0.402E-04
CGA:  13    -0.569648527100E+03   -0.24569E-02   -0.24609E-02  3248   0.141E-01 0.623E-04
CGA:  14    -0.569650796912E+03   -0.22698E-02   -0.22701E-02  3248   0.109E-01-0.146E-04
CGA:  15    -0.569652261443E+03   -0.14645E-02   -0.14647E-02  3248   0.662E-02 0.415E-04
CGA:  16    -0.569653325774E+03   -0.10643E-02   -0.10643E-02  3248   0.456E-02 0.586E-05
CGA:  17    -0.569654020166E+03   -0.69439E-03   -0.69407E-03  3248   0.290E-02 0.205E-04
CGA:  18    -0.569654450891E+03   -0.43072E-03   -0.43065E-03  3248   0.245E-02 0.927E-05
CGA:  19    -0.569654756709E+03   -0.30582E-03   -0.30593E-03  3248   0.116E-02 0.504E-05
CGA:  20    -0.569654956877E+03   -0.20017E-03   -0.20047E-03  3248   0.940E-03-0.743E-05
CGA:  21    -0.569655091747E+03   -0.13487E-03   -0.13490E-03  3248   0.460E-03-0.655E-05
CGA:  22    -0.569655155910E+03   -0.64163E-04   -0.64165E-04  3248   0.356E-03-0.514E-05
CGA:  23    -0.569655197779E+03   -0.41868E-04   -0.41789E-04  3248   0.149E-03-0.358E-05
CGA:  24    -0.569655220899E+03   -0.23120E-04   -0.23153E-04  3248   0.104E-03-0.169E-05
CGA:  25    -0.569655235086E+03   -0.14187E-04   -0.14187E-04  3248   0.561E-04 0.146E-06
CGA:  26    -0.569655243887E+03   -0.88012E-05   -0.87956E-05  3248   0.441E-04 0.364E-06
   4 F= -.56965524E+03 E0= -.56964463E+03  d E =-.150686E+00  mag=    70.0000
       N       E                     dE             d eps       ncg     rms          ort
SDA:   1    -0.545409605197E+03    0.24246E+02    0.00000E+00  3248   0.683E+02 0.000E+00
CGA:   2    -0.559906766627E+03   -0.14497E+02   -0.14655E+02  3248   0.536E+02-0.982E+00
CGA:   3    -0.566331294811E+03   -0.64245E+01   -0.63204E+01  3248   0.168E+02-0.258E+00
CGA:   4    -0.568409621048E+03   -0.20783E+01   -0.20716E+01  3248   0.766E+01-0.107E+00
CGA:   5    -0.569303329862E+03   -0.89371E+00   -0.89075E+00  3248   0.214E+01-0.500E-01
CGA:   6    -0.569613521456E+03   -0.31019E+00   -0.31041E+00  3248   0.817E+00-0.209E-01
CGA:   7    -0.569698858175E+03   -0.85337E-01   -0.85915E-01  3248   0.270E+00 0.142E-02
CGA:   8    -0.569739242569E+03   -0.40384E-01   -0.40469E-01  3248   0.188E+00-0.465E-02
CGA:   9    -0.569758656688E+03   -0.19414E-01   -0.19661E-01  3248   0.726E-01 0.124E-02
CGA:  10    -0.569769246810E+03   -0.10590E-01   -0.10593E-01  3248   0.394E-01-0.232E-03
CGA:  11    -0.569774281000E+03   -0.50342E-02   -0.50396E-02  3248   0.231E-01 0.288E-03
CGA:  12    -0.569778210257E+03   -0.39293E-02   -0.39233E-02  3248   0.979E-02 0.167E-03
CGA:  13    -0.569779989939E+03   -0.17797E-02   -0.17779E-02  3248   0.792E-02 0.378E-04
CGA:  14    -0.569781070809E+03   -0.10809E-02   -0.10808E-02  3248   0.350E-02-0.188E-04
CGA:  15    -0.569781696476E+03   -0.62567E-03   -0.62627E-03  3248   0.250E-02-0.197E-04
CGA:  16    -0.569782054529E+03   -0.35805E-03   -0.35807E-03  3248   0.151E-02-0.226E-04
CGA:  17    -0.569782293669E+03   -0.23914E-03   -0.23910E-03  3248   0.130E-02 0.272E-06
CGA:  18    -0.569782474841E+03   -0.18117E-03   -0.18120E-03  3248   0.784E-03 0.633E-05
CGA:  19    -0.569782614988E+03   -0.14015E-03   -0.13977E-03  3248   0.637E-03 0.109E-04
CGA:  20    -0.569782715541E+03   -0.10055E-03   -0.10046E-03  3248   0.395E-03 0.893E-05
CGA:  21    -0.569782787169E+03   -0.71628E-04   -0.71571E-04  3248   0.244E-03 0.170E-05
CGA:  22    -0.569782826164E+03   -0.38995E-04   -0.39026E-04  3248   0.138E-03-0.259E-05
CGA:  23    -0.569782849249E+03   -0.23085E-04   -0.23222E-04  3248   0.931E-04-0.614E-05
CGA:  24    -0.569782862623E+03   -0.13374E-04   -0.13379E-04  3248   0.503E-04-0.492E-05
CGA:  25    -0.569782871297E+03   -0.86749E-05   -0.88271E-05  3248   0.422E-04-0.426E-05
   5 F= -.56978287E+03 E0= -.56977267E+03  d E =-.127627E+00  mag=    70.0000
       N       E                     dE             d eps       ncg     rms          ort
SDA:   1    -0.564629822819E+03    0.51530E+01    0.00000E+00  3248   0.170E+02 0.000E+00
CGA:   2    -0.567405204106E+03   -0.27754E+01   -0.27769E+01  3248   0.119E+02-0.662E-01
CGA:   3    -0.569075519989E+03   -0.16703E+01   -0.16732E+01  3248   0.350E+01 0.138E+00
CGA:   4    -0.569515776366E+03   -0.44026E+00   -0.43015E+00  3248   0.233E+01-0.103E+00
CGA:   5    -0.569747375147E+03   -0.23160E+00   -0.23730E+00  3248   0.491E+00 0.945E-02
CGA:   6    -0.569832527539E+03   -0.85152E-01   -0.85223E-01  3248   0.139E+00-0.165E-02
CGA:   7    -0.569850150559E+03   -0.17623E-01   -0.17645E-01  3248   0.594E-01 0.466E-03
CGA:   8    -0.569857392632E+03   -0.72421E-02   -0.72446E-02  3248   0.312E-01 0.119E-03
CGA:   9    -0.569862067319E+03   -0.46747E-02   -0.46744E-02  3248   0.919E-02 0.727E-04
CGA:  10    -0.569863993275E+03   -0.19260E-02   -0.19275E-02  3248   0.554E-02-0.232E-04
CGA:  11    -0.569864744386E+03   -0.75111E-03   -0.75065E-03  3248   0.338E-02-0.393E-04
CGA:  12    -0.569865227912E+03   -0.48353E-03   -0.48339E-03  3248   0.158E-02-0.340E-04
CGA:  13    -0.569865491575E+03   -0.26366E-03   -0.26374E-03  3248   0.852E-03-0.392E-05
CGA:  14    -0.569865636352E+03   -0.14478E-03   -0.14440E-03  3248   0.476E-03 0.184E-04
CGA:  15    -0.569865698449E+03   -0.62097E-04   -0.62439E-04  3248   0.305E-03 0.147E-04
CGA:  16    -0.569865754436E+03   -0.55987E-04   -0.55609E-04  3248   0.138E-03 0.135E-04
CGA:  17    -0.569865782827E+03   -0.28391E-04   -0.28340E-04  3248   0.148E-03 0.107E-05
CGA:  18    -0.569865804768E+03   -0.21941E-04   -0.21921E-04  3248   0.879E-04-0.344E-05
CGA:  19    -0.569865823186E+03   -0.18418E-04   -0.18795E-04  3248   0.798E-04-0.565E-05
CGA:  20    -0.569865835246E+03   -0.12060E-04   -0.12084E-04  3248   0.439E-04-0.388E-05
CGA:  21    -0.569865843182E+03   -0.79357E-05   -0.79526E-05  3248   0.370E-04-0.507E-06
   6 F= -.56986584E+03 E0= -.56985624E+03  d E =-.829719E-01  mag=    70.0000
       N       E                     dE             d eps       ncg     rms          ort
SDA:   1    -0.569395643053E+03    0.47019E+00    0.00000E+00  3248   0.155E+01 0.000E+00
CGA:   2    -0.569640816395E+03   -0.24517E+00   -0.24519E+00  3248   0.118E+01-0.570E-02
CGA:   3    -0.569812222448E+03   -0.17141E+00   -0.17166E+00  3248   0.377E+00 0.100E-01
CGA:   4    -0.569853304627E+03   -0.41082E-01   -0.40192E-01  3248   0.177E+00-0.294E-03
CGA:   5    -0.569875903833E+03   -0.22599E-01   -0.22679E-01  3248   0.376E-01 0.883E-03
CGA:   6    -0.569882390598E+03   -0.64868E-02   -0.64886E-02  3248   0.131E-01-0.468E-04
CGA:   7    -0.569883929205E+03   -0.15386E-02   -0.15437E-02  3248   0.573E-02 0.444E-04
CGA:   8    -0.569884648081E+03   -0.71888E-03   -0.71850E-03  3248   0.232E-02 0.702E-05
CGA:   9    -0.569885032744E+03   -0.38466E-03   -0.38451E-03  3248   0.842E-03 0.842E-05
CGA:  10    -0.569885169687E+03   -0.13694E-03   -0.13699E-03  3248   0.635E-03-0.352E-05
CGA:  11    -0.569885255282E+03   -0.85595E-04   -0.85529E-04  3248   0.299E-03-0.480E-05
CGA:  12    -0.569885310147E+03   -0.54865E-04   -0.55002E-04  3248   0.170E-03-0.387E-05
CGA:  13    -0.569885336937E+03   -0.26790E-04   -0.26792E-04  3248   0.117E-03-0.166E-06
CGA:  14    -0.569885354455E+03   -0.17518E-04   -0.17526E-04  3248   0.613E-04 0.262E-05
CGA:  15    -0.569885364932E+03   -0.10477E-04   -0.10446E-04  3248   0.363E-04 0.219E-05
CGA:  16    -0.569885371584E+03   -0.66525E-05   -0.66233E-05  3248   0.250E-04 0.126E-05
   7 F= -.56988537E+03 E0= -.56987586E+03  d E =-.195284E-01  mag=    70.0000
       N       E                     dE             d eps       ncg     rms          ort
SDA:   1    -0.544776649662E+03    0.25109E+02    0.00000E+00  3248   0.760E+02 0.000E+00
CGA:   2    -0.558863016415E+03   -0.14086E+02   -0.14101E+02  3248   0.537E+02-0.380E+00
CGA:   3    -0.566351258806E+03   -0.74882E+01   -0.75062E+01  3248   0.161E+02 0.451E+00
CGA:   4    -0.568609573748E+03   -0.22583E+01   -0.22598E+01  3248   0.755E+01-0.375E-01
CGA:   5    -0.569419463639E+03   -0.80989E+00   -0.79595E+00  3248   0.224E+01-0.195E+00
CGA:   6    -0.569750411485E+03   -0.33095E+00   -0.33094E+00  3248   0.670E+00-0.733E-02
CGA:   7    -0.569832231269E+03   -0.81820E-01   -0.81856E-01  3248   0.309E+00-0.427E-03
CGA:   8    -0.569873225997E+03   -0.40995E-01   -0.41028E-01  3248   0.136E+00 0.497E-03
CGA:   9    -0.569893284880E+03   -0.20059E-01   -0.20056E-01  3248   0.651E-01-0.491E-03
CGA:  10    -0.569902427095E+03   -0.91422E-02   -0.91436E-02  3248   0.379E-01 0.861E-04
CGA:  11    -0.569908660515E+03   -0.62334E-02   -0.62324E-02  3248   0.215E-01 0.662E-04
CGA:  12    -0.569912061361E+03   -0.34008E-02   -0.34000E-02  3248   0.145E-01 0.848E-04
CGA:  13    -0.569914315563E+03   -0.22542E-02   -0.22542E-02  3248   0.838E-02 0.696E-05
CGA:  14    -0.569915778257E+03   -0.14627E-02   -0.14621E-02  3248   0.545E-02 0.163E-04
CGA:  15    -0.569916620474E+03   -0.84222E-03   -0.84227E-03  3248   0.348E-02-0.184E-04
CGA:  16    -0.569917193105E+03   -0.57263E-03   -0.57267E-03  3248   0.218E-02-0.424E-05
CGA:  17    -0.569917571708E+03   -0.37860E-03   -0.37867E-03  3248   0.151E-02-0.283E-05
CGA:  18    -0.569917820599E+03   -0.24889E-03   -0.24881E-03  3248   0.983E-03 0.709E-05
CGA:  19    -0.569917980541E+03   -0.15994E-03   -0.15991E-03  3248   0.643E-03 0.454E-05
CGA:  20    -0.569918088680E+03   -0.10814E-03   -0.10809E-03  3248   0.352E-03 0.397E-05
CGA:  21    -0.569918145269E+03   -0.56589E-04   -0.56598E-04  3248   0.221E-03-0.215E-05
CGA:  22    -0.569918177450E+03   -0.32181E-04   -0.32154E-04  3248   0.115E-03-0.296E-05
CGA:  23    -0.569918198070E+03   -0.20620E-04   -0.20752E-04  3248   0.774E-04-0.468E-05
CGA:  24    -0.569918209503E+03   -0.11434E-04   -0.11427E-04  3248   0.495E-04-0.268E-05
CGA:  25    -0.569918217878E+03   -0.83744E-05   -0.84204E-05  3248   0.351E-04-0.230E-05
   8 F= -.56991822E+03 E0= -.56990912E+03  d E =-.328463E-01  mag=    70.0000
       N       E                     dE             d eps       ncg     rms          ort
SDA:   1    -0.557205731702E+03    0.12712E+02    0.00000E+00  3248   0.481E+02 0.000E+00
CGA:   2    -0.564002393685E+03   -0.67967E+01   -0.67863E+01  3248   0.241E+02-0.231E+00
CGA:   3    -0.567816602039E+03   -0.38142E+01   -0.38139E+01  3248   0.920E+01 0.113E+00
CGA:   4    -0.569127526189E+03   -0.13109E+01   -0.13159E+01  3248   0.475E+01 0.951E-01
CGA:   5    -0.569616919212E+03   -0.48939E+00   -0.47876E+00  3248   0.140E+01-0.988E-01
CGA:   6    -0.569826571463E+03   -0.20965E+00   -0.20965E+00  3248   0.427E+00-0.149E-02
CGA:   7    -0.569882676361E+03   -0.56105E-01   -0.56129E-01  3248   0.157E+00 0.398E-03
CGA:   8    -0.569902832898E+03   -0.20157E-01   -0.20130E-01  3248   0.915E-01-0.290E-03
CGA:   9    -0.569914787027E+03   -0.11954E-01   -0.11950E-01  3248   0.306E-01-0.470E-05
CGA:  10    -0.569920151014E+03   -0.53640E-02   -0.53610E-02  3248   0.198E-01 0.779E-04
CGA:  11    -0.569922859761E+03   -0.27087E-02   -0.27072E-02  3248   0.104E-01-0.602E-04
CGA:  12    -0.569924456644E+03   -0.15969E-02   -0.15971E-02  3248   0.676E-02-0.532E-04
CGA:  13    -0.569925465275E+03   -0.10086E-02   -0.10087E-02  3248   0.327E-02 0.176E-04
CGA:  14    -0.569926111395E+03   -0.64612E-03   -0.64521E-03  3248   0.249E-02 0.197E-04
CGA:  15    -0.569926436815E+03   -0.32542E-03   -0.32594E-03  3248   0.145E-02 0.226E-04
CGA:  16    -0.569926702880E+03   -0.26607E-03   -0.26547E-03  3248   0.844E-03 0.206E-04
CGA:  17    -0.569926848058E+03   -0.14518E-03   -0.14509E-03  3248   0.574E-03 0.622E-05
CGA:  18    -0.569926941954E+03   -0.93896E-04   -0.93925E-04  3248   0.427E-03-0.385E-05
CGA:  19    -0.569927008410E+03   -0.66456E-04   -0.66468E-04  3248   0.236E-03-0.718E-05
CGA:  20    -0.569927052618E+03   -0.44208E-04   -0.44533E-04  3248   0.178E-03-0.873E-05
CGA:  21    -0.569927077210E+03   -0.24591E-04   -0.24549E-04  3248   0.951E-04-0.307E-05
CGA:  22    -0.569927092959E+03   -0.15749E-04   -0.15746E-04  3248   0.629E-04 0.222E-06
CGA:  23    -0.569927102214E+03   -0.92553E-05   -0.92777E-05  3248   0.333E-04 0.233E-05
   9 F= -.56992710E+03 E0= -.56991801E+03  d E =-.888434E-02  mag=    70.0000
       N       E                     dE             d eps       ncg     rms          ort
SDA:   1    -0.567583025203E+03    0.23441E+01    0.00000E+00  3248   0.900E+01 0.000E+00
CGA:   2    -0.568860515643E+03   -0.12775E+01   -0.12776E+01  3248   0.444E+01 0.293E-02
CGA:   3    -0.569593753982E+03   -0.73324E+00   -0.73323E+00  3248   0.160E+01 0.654E-03
CGA:   4    -0.569871527115E+03   -0.27777E+00   -0.27777E+00  3248   0.561E+00 0.504E-03
CGA:   5    -0.569933580972E+03   -0.62054E-01   -0.62328E-01  3248   0.281E+00-0.732E-03
CGA:   6    -0.569966439763E+03   -0.32859E-01   -0.32814E-01  3248   0.747E-01-0.365E-03
CGA:   7    -0.569976729737E+03   -0.10290E-01   -0.10288E-01  3248   0.244E-01-0.706E-04
CGA:   8    -0.569980768450E+03   -0.40387E-02   -0.40390E-02  3248   0.139E-01-0.338E-04
CGA:   9    -0.569982330984E+03   -0.15625E-02   -0.15621E-02  3248   0.616E-02-0.150E-04
CGA:  10    -0.569983339387E+03   -0.10084E-02   -0.10084E-02  3248   0.287E-02-0.552E-06
CGA:  11    -0.569983803007E+03   -0.46362E-03   -0.46335E-03  3248   0.177E-02 0.273E-04
CGA:  12    -0.569984070700E+03   -0.26769E-03   -0.26775E-03  3248   0.981E-03 0.185E-04
CGA:  13    -0.569984214068E+03   -0.14337E-03   -0.14342E-03  3248   0.616E-03 0.623E-05
CGA:  14    -0.569984322066E+03   -0.10800E-03   -0.10815E-03  3248   0.326E-03-0.706E-05
CGA:  15    -0.569984379421E+03   -0.57355E-04   -0.57598E-04  3248   0.264E-03-0.948E-05
CGA:  16    -0.569984414242E+03   -0.34820E-04   -0.34691E-04  3248   0.133E-03-0.674E-05
CGA:  17    -0.569984438431E+03   -0.24189E-04   -0.24228E-04  3248   0.891E-04-0.118E-05
CGA:  18    -0.569984452215E+03   -0.13785E-04   -0.13784E-04  3248   0.538E-04 0.138E-05
CGA:  19    -0.569984461741E+03   -0.95256E-05   -0.94686E-05  3248   0.377E-04 0.316E-05
  10 F= -.56998446E+03 E0= -.56997556E+03  d E =-.573595E-01  mag=    70.0000
       N       E                     dE             d eps       ncg     rms          ort
SDA:   1    -0.569902640019E+03    0.81812E-01    0.00000E+00  3248   0.313E+00 0.000E+00
CGA:   2    -0.569949906819E+03   -0.47267E-01   -0.47266E-01  3248   0.161E+00-0.170E-04
CGA:   3    -0.569973516720E+03   -0.23610E-01   -0.23610E-01  3248   0.535E-01 0.165E-04
CGA:   4    -0.569982009008E+03   -0.84923E-02   -0.84923E-02  3248   0.319E-01-0.191E-04
CGA:   5    -0.569984931415E+03   -0.29224E-02   -0.29240E-02  3248   0.869E-02-0.151E-04
CGA:   6    -0.569986258801E+03   -0.13274E-02   -0.13274E-02  3248   0.207E-02 0.303E-05
CGA:   7    -0.569986575064E+03   -0.31626E-03   -0.31626E-03  3248   0.112E-02 0.425E-05
CGA:   8    -0.569986712948E+03   -0.13788E-03   -0.13789E-03  3248   0.562E-03 0.224E-06
CGA:   9    -0.569986791701E+03   -0.78753E-04   -0.78757E-04  3248   0.227E-03 0.371E-06
CGA:  10    -0.569986836692E+03   -0.44991E-04   -0.45058E-04  3248   0.182E-03-0.139E-05
CGA:  11    -0.569986863046E+03   -0.26354E-04   -0.26350E-04  3248   0.119E-03-0.617E-06
CGA:  12    -0.569986883838E+03   -0.20792E-04   -0.20818E-04  3248   0.869E-04-0.104E-05
CGA:  13    -0.569986897898E+03   -0.14060E-04   -0.14056E-04  3248   0.520E-04 0.417E-06
CGA:  14    -0.569986907481E+03   -0.95828E-05   -0.95637E-05  3248   0.362E-04 0.645E-06
  11 F= -.56998691E+03 E0= -.56997803E+03  d E =-.244574E-02  mag=    70.0000
       N       E                     dE             d eps       ncg     rms          ort
SDA:   1    -0.545045159735E+03    0.24942E+02    0.00000E+00  3248   0.908E+02 0.000E+00
CGA:   2    -0.559320833794E+03   -0.14276E+02   -0.14277E+02  3248   0.465E+02-0.213E+00
CGA:   3    -0.566097277180E+03   -0.67764E+01   -0.67799E+01  3248   0.151E+02 0.152E+00
CGA:   4    -0.568800377746E+03   -0.27031E+01   -0.27102E+01  3248   0.646E+01-0.201E+00
CGA:   5    -0.569510380404E+03   -0.71000E+00   -0.72364E+00  3248   0.250E+01-0.238E-01
CGA:   6    -0.569817801509E+03   -0.30742E+00   -0.30729E+00  3248   0.625E+00-0.997E-02
CGA:   7    -0.569906687703E+03   -0.88886E-01   -0.88774E-01  3248   0.326E+00-0.514E-02
CGA:   8    -0.569953120066E+03   -0.46432E-01   -0.46477E-01  3248   0.129E+00 0.255E-02
CGA:   9    -0.569974016402E+03   -0.20896E-01   -0.20908E-01  3248   0.702E-01-0.704E-03
CGA:  10    -0.569985772039E+03   -0.11756E-01   -0.11744E-01  3248   0.506E-01 0.431E-03
CGA:  11    -0.569993604740E+03   -0.78327E-02   -0.78330E-02  3248   0.291E-01-0.983E-04
CGA:  12    -0.569999472715E+03   -0.58680E-02   -0.58665E-02  3248   0.201E-01 0.290E-04
CGA:  13    -0.570002996535E+03   -0.35238E-02   -0.35244E-02  3248   0.142E-01-0.115E-04
CGA:  14    -0.570005355509E+03   -0.23590E-02   -0.23579E-02  3248   0.894E-02 0.654E-04
CGA:  15    -0.570006916094E+03   -0.15606E-02   -0.15611E-02  3248   0.570E-02-0.143E-04
CGA:  16    -0.570007874134E+03   -0.95804E-03   -0.95776E-03  3248   0.334E-02 0.164E-04
CGA:  17    -0.570008497747E+03   -0.62361E-03   -0.62397E-03  3248   0.216E-02-0.102E-04
CGA:  18    -0.570008849591E+03   -0.35184E-03   -0.35184E-03  3248   0.138E-02-0.477E-06
CGA:  19    -0.570009067791E+03   -0.21820E-03   -0.21819E-03  3248   0.698E-03-0.510E-05
CGA:  20    -0.570009191127E+03   -0.12334E-03   -0.12336E-03  3248   0.367E-03-0.141E-05
CGA:  21    -0.570009249071E+03   -0.57944E-04   -0.57941E-04  3248   0.214E-03-0.137E-05
CGA:  22    -0.570009283634E+03   -0.34563E-04   -0.34563E-04  3248   0.111E-03 0.112E-06
CGA:  23    -0.570009301972E+03   -0.18338E-04   -0.18341E-04  3248   0.692E-04-0.583E-06
CGA:  24    -0.570009314350E+03   -0.12377E-04   -0.12382E-04  3248   0.411E-04-0.253E-06
CGA:  25    -0.570009322499E+03   -0.81487E-05   -0.81962E-05  3248   0.374E-04-0.123E-05
  12 F= -.57000932E+03 E0= -.57000142E+03  d E =-.224150E-01  mag=    70.0000
       N       E                     dE             d eps       ncg     rms          ort
SDA:   1    -0.539116765887E+03    0.30893E+02    0.00000E+00  3248   0.131E+03 0.000E+00
CGA:   2    -0.555211552820E+03   -0.16095E+02   -0.16137E+02  3248   0.547E+02 0.867E-01
CGA:   3    -0.564394697757E+03   -0.91831E+01   -0.91713E+01  3248   0.224E+02 0.111E+01
CGA:   4    -0.567555537163E+03   -0.31608E+01   -0.31603E+01  3248   0.126E+02-0.248E+00
CGA:   5    -0.568837340034E+03   -0.12818E+01   -0.13213E+01  3248   0.390E+01-0.259E+00
CGA:   6    -0.569298209941E+03   -0.46087E+00   -0.42823E+00  3248   0.176E+01-0.181E+00
CGA:   7    -0.569478102838E+03   -0.17989E+00   -0.18514E+00  3248   0.568E+00 0.471E-02
CGA:   8    -0.569554453492E+03   -0.76351E-01   -0.76202E-01  3248   0.238E+00-0.287E-02
CGA:   9    -0.569588934675E+03   -0.34481E-01   -0.34459E-01  3248   0.138E+00-0.159E-02
CGA:  10    -0.569603807446E+03   -0.14873E-01   -0.14996E-01  3248   0.718E-01 0.272E-03
CGA:  11    -0.569612533663E+03   -0.87262E-02   -0.86637E-02  3248   0.465E-01-0.538E-03
CGA:  12    -0.569619071688E+03   -0.65380E-02   -0.65435E-02  3248   0.241E-01 0.384E-03
CGA:  13    -0.569622959715E+03   -0.38880E-02   -0.38898E-02  3248   0.160E-01-0.742E-04
CGA:  14    -0.569625902542E+03   -0.29428E-02   -0.29395E-02  3248   0.101E-01 0.701E-04
CGA:  15    -0.569627291151E+03   -0.13886E-02   -0.13898E-02  3248   0.819E-02 0.392E-04
CGA:  16    -0.569628469126E+03   -0.11780E-02   -0.11774E-02  3248   0.577E-02-0.382E-04
CGA:  17    -0.569629128745E+03   -0.65962E-03   -0.66128E-03  3248   0.285E-02 0.615E-05
CGA:  18    -0.569629648279E+03   -0.51953E-03   -0.51978E-03  3248   0.192E-02-0.504E-05
CGA:  19    -0.569629976288E+03   -0.32801E-03   -0.32794E-03  3248   0.112E-02 0.200E-05
CGA:  20    -0.569630165784E+03   -0.18950E-03   -0.18949E-03  3248   0.793E-03 0.826E-06
CGA:  21    -0.569630290268E+03   -0.12448E-03   -0.12450E-03  3248   0.487E-03-0.248E-05
CGA:  22    -0.569630354403E+03   -0.64136E-04   -0.64129E-04  3248   0.374E-03-0.110E-05
CGA:  23    -0.569630400725E+03   -0.46322E-04   -0.46248E-04  3248   0.187E-03-0.193E-05
CGA:  24    -0.569630433032E+03   -0.32307E-04   -0.32350E-04  3248   0.123E-03-0.183E-05
CGA:  25    -0.569630451559E+03   -0.18526E-04   -0.18527E-04  3248   0.758E-04-0.408E-06
CGA:  26    -0.569630467120E+03   -0.15562E-04   -0.15590E-04  3248   0.506E-04-0.505E-06
CGA:  27    -0.569630476354E+03   -0.92331E-05   -0.92309E-05  3248   0.406E-04 0.830E-07
  13 F= -.56963048E+03 E0= -.56962219E+03  d E =0.378846E+00  mag=    70.0000
       N       E                     dE             d eps       ncg     rms          ort
SDA:   1    -0.560432219467E+03    0.91982E+01    0.00000E+00  3248   0.443E+02 0.000E+00
CGA:   2    -0.565549911623E+03   -0.51177E+01   -0.51405E+01  3248   0.160E+02 0.104E+00
CGA:   3    -0.568356749166E+03   -0.28068E+01   -0.28034E+01  3248   0.689E+01 0.109E+00
CGA:   4    -0.569435180297E+03   -0.10784E+01   -0.10784E+01  3248   0.375E+01-0.661E-01
CGA:   5    -0.569791313491E+03   -0.35613E+00   -0.36605E+00  3248   0.108E+01-0.795E-01
CGA:   6    -0.569946236979E+03   -0.15492E+00   -0.15457E+00  3248   0.406E+00-0.257E-01
CGA:   7    -0.569993333074E+03   -0.47096E-01   -0.48319E-01  3248   0.131E+00 0.110E-01
CGA:   8    -0.570013770424E+03   -0.20437E-01   -0.20452E-01  3248   0.613E-01-0.547E-02
CGA:   9    -0.570022409883E+03   -0.86395E-02   -0.86487E-02  3248   0.239E-01 0.125E-02
CGA:  10    -0.570026245935E+03   -0.38361E-02   -0.38392E-02  3248   0.148E-01-0.250E-03
CGA:  11    -0.570028198447E+03   -0.19525E-02   -0.19549E-02  3248   0.791E-02 0.509E-04
CGA:  12    -0.570029538440E+03   -0.13400E-02   -0.13399E-02  3248   0.427E-02 0.455E-05
CGA:  13    -0.570030260950E+03   -0.72251E-03   -0.72232E-03  3248   0.269E-02 0.115E-04
CGA:  14    -0.570030736030E+03   -0.47508E-03   -0.47492E-03  3248   0.163E-02 0.464E-05
CGA:  15    -0.570031037408E+03   -0.30138E-03   -0.30139E-03  3248   0.108E-02-0.808E-06
CGA:  16    -0.570031190924E+03   -0.15352E-03   -0.15344E-03  3248   0.635E-03-0.450E-05
CGA:  17    -0.570031300269E+03   -0.10935E-03   -0.10933E-03  3248   0.421E-03-0.135E-06
CGA:  18    -0.570031367252E+03   -0.66982E-04   -0.67000E-04  3248   0.239E-03-0.291E-05
CGA:  19    -0.570031416983E+03   -0.49732E-04   -0.49717E-04  3248   0.162E-03 0.465E-07
CGA:  20    -0.570031444351E+03   -0.27367E-04   -0.27374E-04  3248   0.115E-03-0.302E-06
CGA:  21    -0.570031464636E+03   -0.20285E-04   -0.20272E-04  3248   0.706E-04 0.732E-06
CGA:  22    -0.570031475881E+03   -0.11245E-04   -0.11244E-04  3248   0.518E-04-0.902E-07
CGA:  23    -0.570031484836E+03   -0.89546E-05   -0.89545E-05  3248   0.287E-04-0.254E-07
  14 F= -.57003148E+03 E0= -.57002465E+03  d E =-.401008E+00  mag=    70.0000
       N       E                     dE             d eps       ncg     rms          ort
SDA:   1    -0.568932421916E+03    0.10991E+01    0.00000E+00  3248   0.565E+01 0.000E+00
CGA:   2    -0.569539358707E+03   -0.60694E+00   -0.60696E+00  3248   0.187E+01-0.323E-04
CGA:   3    -0.569876956161E+03   -0.33760E+00   -0.33757E+00  3248   0.704E+00 0.959E-03
CGA:   4    -0.569999802089E+03   -0.12285E+00   -0.12291E+00  3248   0.379E+00-0.275E-02
CGA:   5    -0.570036944434E+03   -0.37142E-01   -0.37802E-01  3248   0.120E+00-0.202E-02
CGA:   6    -0.570053942062E+03   -0.16998E-01   -0.16986E-01  3248   0.340E-01-0.293E-03
CGA:   7    -0.570059068455E+03   -0.51264E-02   -0.51272E-02  3248   0.131E-01 0.794E-04
CGA:   8    -0.570060935374E+03   -0.18669E-02   -0.18666E-02  3248   0.669E-02 0.521E-05
CGA:   9    -0.570061789274E+03   -0.85390E-03   -0.85482E-03  3248   0.253E-02 0.168E-04
CGA:  10    -0.570062229063E+03   -0.43979E-03   -0.43994E-03  3248   0.120E-02-0.694E-05
CGA:  11    -0.570062434790E+03   -0.20573E-03   -0.20573E-03  3248   0.888E-03-0.134E-05
CGA:  12    -0.570062568207E+03   -0.13342E-03   -0.13340E-03  3248   0.441E-03-0.171E-05
CGA:  13    -0.570062650089E+03   -0.81882E-04   -0.81799E-04  3248   0.298E-03 0.267E-05
CGA:  14    -0.570062704570E+03   -0.54480E-04   -0.54464E-04  3248   0.203E-03 0.762E-06
CGA:  15    -0.570062737848E+03   -0.33278E-04   -0.33273E-04  3248   0.130E-03 0.987E-06
CGA:  16    -0.570062759770E+03   -0.21923E-04   -0.21926E-04  3248   0.711E-04-0.304E-06
CGA:  17    -0.570062773810E+03   -0.14040E-04   -0.14060E-04  3248   0.521E-04-0.522E-06
CGA:  18    -0.570062781964E+03   -0.81540E-05   -0.81500E-05  3248   0.345E-04-0.101E-05
  15 F= -.57006278E+03 E0= -.57005638E+03  d E =-.312971E-01  mag=    70.0000
       N       E                     dE             d eps       ncg     rms          ort
SDA:   1    -0.569969863067E+03    0.92911E-01    0.00000E+00  3248   0.452E+00 0.000E+00
CGA:   2    -0.570020762856E+03   -0.50900E-01   -0.50900E-01  3248   0.176E+00 0.473E-05
CGA:   3    -0.570052592684E+03   -0.31830E-01   -0.31830E-01  3248   0.503E-01-0.965E-05
CGA:   4    -0.570061722141E+03   -0.91295E-02   -0.91285E-02  3248   0.261E-01 0.160E-04
CGA:   5    -0.570064523955E+03   -0.28018E-02   -0.27929E-02  3248   0.928E-02-0.195E-04
CGA:   6    -0.570065674370E+03   -0.11504E-02   -0.11513E-02  3248   0.233E-02 0.850E-05
CGA:   7    -0.570066062002E+03   -0.38763E-03   -0.38752E-03  3248   0.866E-03 0.136E-04
CGA:   8    -0.570066193334E+03   -0.13133E-03   -0.13140E-03  3248   0.474E-03 0.844E-05
CGA:   9    -0.570066253495E+03   -0.60161E-04   -0.60163E-04  3248   0.196E-03 0.463E-06
CGA:  10    -0.570066290993E+03   -0.37498E-04   -0.37613E-04  3248   0.105E-03-0.324E-05
CGA:  11    -0.570066310081E+03   -0.19088E-04   -0.19190E-04  3248   0.888E-04-0.356E-05
CGA:  12    -0.570066322205E+03   -0.12124E-04   -0.12106E-04  3248   0.407E-04-0.979E-06
CGA:  13    -0.570066331087E+03   -0.88824E-05   -0.88090E-05  3248   0.264E-04 0.122E-05
  16 F= -.57006633E+03 E0= -.57005994E+03  d E =-.354912E-02  mag=    70.0000
       N       E                     dE             d eps       ncg     rms          ort
SDA:   1    -0.569507456733E+03    0.55887E+00    0.00000E+00  3248   0.214E+01 0.000E+00
CGA:   2    -0.569811268951E+03   -0.30381E+00   -0.30381E+00  3248   0.109E+01-0.571E-04
CGA:   3    -0.569986342955E+03   -0.17507E+00   -0.17507E+00  3248   0.319E+00 0.250E-03
CGA:   4    -0.570046144717E+03   -0.59802E-01   -0.59816E-01  3248   0.125E+00-0.392E-03
CGA:   5    -0.570061166321E+03   -0.15022E-01   -0.15098E-01  3248   0.515E-01 0.256E-03
CGA:   6    -0.570067025607E+03   -0.58593E-02   -0.58382E-02  3248   0.134E-01-0.347E-04
CGA:   7    -0.570069122805E+03   -0.20972E-02   -0.20972E-02  3248   0.497E-02 0.346E-04
CGA:   8    -0.570069975020E+03   -0.85221E-03   -0.85222E-03  3248   0.242E-02 0.241E-05
CGA:   9    -0.570070297047E+03   -0.32203E-03   -0.32215E-03  3248   0.133E-02 0.774E-06
CGA:  10    -0.570070527400E+03   -0.23035E-03   -0.23052E-03  3248   0.690E-03-0.953E-05
CGA:  11    -0.570070666284E+03   -0.13888E-03   -0.13906E-03  3248   0.509E-03-0.441E-05
CGA:  12    -0.570070746438E+03   -0.80153E-04   -0.80150E-04  3248   0.313E-03-0.198E-05
CGA:  13    -0.570070805673E+03   -0.59235E-04   -0.59099E-04  3248   0.205E-03 0.449E-05
CGA:  14    -0.570070840403E+03   -0.34730E-04   -0.34710E-04  3248   0.129E-03 0.353E-05
CGA:  15    -0.570070864157E+03   -0.23754E-04   -0.23704E-04  3248   0.697E-04 0.259E-05
CGA:  16    -0.570070878175E+03   -0.14018E-04   -0.14041E-04  3248   0.577E-04-0.661E-06
CGA:  17    -0.570070886727E+03   -0.85515E-05   -0.85391E-05  3248   0.294E-04-0.839E-06
  17 F= -.57007089E+03 E0= -.57006450E+03  d E =-.455564E-02  mag=    70.0000
       N       E                     dE             d eps       ncg     rms          ort
SDA:   1    -0.567160197450E+03    0.29107E+01    0.00000E+00  3248   0.106E+02 0.000E+00
CGA:   2    -0.568749981475E+03   -0.15898E+01   -0.15879E+01  3248   0.600E+01-0.440E-01
CGA:   3    -0.569614597697E+03   -0.86462E+00   -0.86874E+00  3248   0.191E+01 0.721E-01
CGA:   4    -0.569896374381E+03   -0.28178E+00   -0.27956E+00  3248   0.111E+01-0.428E-01
CGA:   5    -0.570018037556E+03   -0.12166E+00   -0.12368E+00  3248   0.249E+00 0.154E-03
CGA:   6    -0.570057462138E+03   -0.39425E-01   -0.39421E-01  3248   0.652E-01-0.563E-03
CGA:   7    -0.570067728683E+03   -0.10267E-01   -0.10268E-01  3248   0.307E-01 0.194E-03
CGA:   8    -0.570072116318E+03   -0.43876E-02   -0.43820E-02  3248   0.144E-01-0.115E-03
CGA:   9    -0.570074204764E+03   -0.20884E-02   -0.20899E-02  3248   0.640E-02 0.369E-04
CGA:  10    -0.570075472467E+03   -0.12677E-02   -0.12695E-02  3248   0.419E-02-0.362E-04
CGA:  11    -0.570076260979E+03   -0.78851E-03   -0.78778E-03  3248   0.271E-02 0.156E-04
CGA:  12    -0.570076762087E+03   -0.50111E-03   -0.50139E-03  3248   0.199E-02-0.860E-05
CGA:  13    -0.570077102472E+03   -0.34039E-03   -0.34028E-03  3248   0.119E-02 0.106E-04
CGA:  14    -0.570077342747E+03   -0.24028E-03   -0.24006E-03  3248   0.707E-03 0.644E-05
CGA:  15    -0.570077477630E+03   -0.13488E-03   -0.13478E-03  3248   0.456E-03 0.401E-05
CGA:  16    -0.570077559009E+03   -0.81379E-04   -0.81408E-04  3248   0.308E-03-0.242E-05
CGA:  17    -0.570077611135E+03   -0.52126E-04   -0.52129E-04  3248   0.166E-03-0.139E-05
CGA:  18    -0.570077646114E+03   -0.34979E-04   -0.35071E-04  3248   0.968E-04-0.196E-05
CGA:  19    -0.570077662077E+03   -0.15963E-04   -0.15963E-04  3248   0.561E-04 0.548E-07
CGA:  20    -0.570077671314E+03   -0.92368E-05   -0.92355E-05  3248   0.280E-04-0.130E-06
  18 F= -.57007767E+03 E0= -.57007163E+03  d E =-.678459E-02  mag=    70.0000
       N       E                     dE             d eps       ncg     rms          ort
SDA:   1    -0.539957055206E+03    0.30121E+02    0.00000E+00  3248   0.121E+03 0.000E+00
CGA:   2    -0.555711547399E+03   -0.15754E+02   -0.15770E+02  3248   0.574E+02 0.104E+00
CGA:   3    -0.565571714144E+03   -0.98602E+01   -0.98595E+01  3248   0.156E+02 0.113E+00
CGA:   4    -0.568541576020E+03   -0.29699E+01   -0.29646E+01  3248   0.595E+01 0.146E+00
CGA:   5    -0.569315820558E+03   -0.77424E+00   -0.74448E+00  3248   0.315E+01-0.223E+00
CGA:   6    -0.569593162307E+03   -0.27734E+00   -0.30055E+00  3248   0.887E+00-0.718E-01
CGA:   7    -0.569710734297E+03   -0.11757E+00   -0.11616E+00  3248   0.316E+00-0.139E-01
CGA:   8    -0.569760410314E+03   -0.49676E-01   -0.49696E-01  3248   0.170E+00 0.413E-02
CGA:   9    -0.569779759606E+03   -0.19349E-01   -0.18881E-01  3248   0.878E-01-0.520E-03
CGA:  10    -0.569792984852E+03   -0.13225E-01   -0.13237E-01  3248   0.405E-01 0.696E-03
CGA:  11    -0.569799981893E+03   -0.69970E-02   -0.70056E-02  3248   0.338E-01-0.339E-03
CGA:  12    -0.569804196379E+03   -0.42145E-02   -0.42469E-02  3248   0.180E-01 0.290E-03
CGA:  13    -0.569807347581E+03   -0.31512E-02   -0.31552E-02  3248   0.130E-01-0.141E-03
CGA:  14    -0.569809177261E+03   -0.18297E-02   -0.18317E-02  3248   0.869E-02 0.376E-04
CGA:  15    -0.569810593322E+03   -0.14161E-02   -0.14165E-02  3248   0.562E-02-0.615E-04
CGA:  16    -0.569811445008E+03   -0.85169E-03   -0.85181E-03  3248   0.377E-02 0.205E-05
CGA:  17    -0.569812034092E+03   -0.58908E-03   -0.58900E-03  3248   0.292E-02-0.241E-04
CGA:  18    -0.569812467854E+03   -0.43376E-03   -0.43403E-03  3248   0.148E-02 0.178E-04
CGA:  19    -0.569812741175E+03   -0.27332E-03   -0.27329E-03  3248   0.123E-02 0.435E-05
CGA:  20    -0.569812889695E+03   -0.14852E-03   -0.14899E-03  3248   0.636E-03 0.718E-05
CGA:  21    -0.569813010173E+03   -0.12048E-03   -0.12050E-03  3248   0.367E-03-0.377E-06
CGA:  22    -0.569813060275E+03   -0.50102E-04   -0.50069E-04  3248   0.247E-03-0.225E-05
CGA:  23    -0.569813096414E+03   -0.36139E-04   -0.36082E-04  3248   0.134E-03-0.520E-05
CGA:  24    -0.569813117907E+03   -0.21493E-04   -0.21523E-04  3248   0.930E-04-0.402E-05
CGA:  25    -0.569813132025E+03   -0.14118E-04   -0.14117E-04  3248   0.697E-04-0.266E-05
CGA:  26    -0.569813142392E+03   -0.10366E-04   -0.10363E-04  3248   0.438E-04-0.666E-06
CGA:  27    -0.569813150467E+03   -0.80752E-05   -0.80589E-05  3248   0.391E-04 0.554E-06
  19 F= -.56981315E+03 E0= -.56980640E+03  d E =0.264521E+00  mag=    70.0000
       N       E                     dE             d eps       ncg     rms          ort
SDA:   1    -0.562125756461E+03    0.76874E+01    0.00000E+00  3248   0.414E+02 0.000E+00
CGA:   2    -0.566425525948E+03   -0.42998E+01   -0.43025E+01  3248   0.137E+02 0.925E-02
CGA:   3    -0.569018874785E+03   -0.25933E+01   -0.25927E+01  3248   0.378E+01 0.107E-01
CGA:   4    -0.569758993653E+03   -0.74012E+00   -0.74002E+00  3248   0.157E+01 0.168E-02
CGA:   5    -0.569986353770E+03   -0.22736E+00   -0.22740E+00  3248   0.484E+00 0.118E-02
CGA:   6    -0.570049850527E+03   -0.63497E-01   -0.63416E-01  3248   0.180E+00-0.986E-03
CGA:   7    -0.570074061201E+03   -0.24211E-01   -0.24248E-01  3248   0.725E-01 0.670E-03
CGA:   8    -0.570084819317E+03   -0.10758E-01   -0.10753E-01  3248   0.313E-01-0.211E-03
CGA:   9    -0.570089199802E+03   -0.43805E-02   -0.43924E-02  3248   0.172E-01 0.335E-03
CGA:  10    -0.570091659219E+03   -0.24594E-02   -0.24533E-02  3248   0.818E-02-0.200E-03
CGA:  11    -0.570093292892E+03   -0.16337E-02   -0.16307E-02  3248   0.462E-02 0.376E-04
CGA:  12    -0.570094080635E+03   -0.78774E-03   -0.78888E-03  3248   0.341E-02-0.490E-04
CGA:  13    -0.570094650020E+03   -0.56938E-03   -0.56877E-03  3248   0.185E-02 0.352E-04
CGA:  14    -0.570094998969E+03   -0.34895E-03   -0.34893E-03  3248   0.147E-02 0.444E-05
CGA:  15    -0.570095206082E+03   -0.20711E-03   -0.20738E-03  3248   0.788E-03 0.114E-04
CGA:  16    -0.570095373247E+03   -0.16716E-03   -0.16703E-03  3248   0.490E-03 0.286E-05
CGA:  17    -0.570095458365E+03   -0.85118E-04   -0.85133E-04  3248   0.371E-03-0.150E-05
CGA:  18    -0.570095527709E+03   -0.69344E-04   -0.69528E-04  3248   0.210E-03-0.669E-05
CGA:  19    -0.570095563873E+03   -0.36164E-04   -0.36208E-04  3248   0.159E-03-0.352E-05
CGA:  20    -0.570095587611E+03   -0.23738E-04   -0.23710E-04  3248   0.825E-04-0.222E-05
CGA:  21    -0.570095602943E+03   -0.15332E-04   -0.15314E-04  3248   0.534E-04 0.636E-06
CGA:  22    -0.570095611589E+03   -0.86466E-05   -0.86502E-05  3248   0.289E-04 0.115E-05
  20 F= -.57009561E+03 E0= -.57008965E+03  d E =-.282461E+00  mag=    70.0000
       N       E                     dE             d eps       ncg     rms          ort
SDA:   1    -0.568863813386E+03    0.12318E+01    0.00000E+00  3248   0.592E+01 0.000E+00
CGA:   2    -0.569522182983E+03   -0.65837E+00   -0.65844E+00  3248   0.233E+01 0.218E-03
CGA:   3    -0.569956331981E+03   -0.43415E+00   -0.43413E+00  3248   0.574E+00 0.324E-03
CGA:   4    -0.570070679388E+03   -0.11435E+00   -0.11435E+00  3248   0.231E+00-0.152E-03
CGA:   5    -0.570105906563E+03   -0.35227E-01   -0.35227E-01  3248   0.560E-01-0.409E-04
CGA:   6    -0.570114519297E+03   -0.86127E-02   -0.86128E-02  3248   0.205E-01 0.426E-04
CGA:   7    -0.570117442528E+03   -0.29232E-02   -0.29270E-02  3248   0.929E-02 0.105E-03
CGA:   8    -0.570118680157E+03   -0.12376E-02   -0.12364E-02  3248   0.381E-02 0.727E-05
CGA:   9    -0.570119316583E+03   -0.63643E-03   -0.63637E-03  3248   0.176E-02 0.402E-05
CGA:  10    -0.570119633263E+03   -0.31668E-03   -0.31723E-03  3248   0.116E-02-0.249E-04
CGA:  11    -0.570119818227E+03   -0.18496E-03   -0.18496E-03  3248   0.530E-03-0.667E-05
CGA:  12    -0.570119934224E+03   -0.11600E-03   -0.11598E-03  3248   0.387E-03 0.490E-06
CGA:  13    -0.570119991044E+03   -0.56820E-04   -0.56934E-04  3248   0.236E-03 0.560E-05
CGA:  14    -0.570120036303E+03   -0.45259E-04   -0.45130E-04  3248   0.122E-03 0.546E-05
CGA:  15    -0.570120063455E+03   -0.27152E-04   -0.26997E-04  3248   0.907E-04 0.306E-05
CGA:  16    -0.570120080476E+03   -0.17021E-04   -0.17025E-04  3248   0.657E-04-0.225E-06
CGA:  17    -0.570120093770E+03   -0.13293E-04   -0.13341E-04  3248   0.478E-04-0.140E-05
CGA:  18    -0.570120101991E+03   -0.82213E-05   -0.82305E-05  3248   0.312E-04-0.181E-05
  21 F= -.57012010E+03 E0= -.57011453E+03  d E =-.244904E-01  mag=    70.0000
       N       E                     dE             d eps       ncg     rms          ort
SDA:   1    -0.570005578189E+03    0.11452E+00    0.00000E+00  3248   0.443E+00 0.000E+00
CGA:   2    -0.570067658325E+03   -0.62080E-01   -0.62082E-01  3248   0.229E+00 0.379E-04
CGA:   3    -0.570105146303E+03   -0.37488E-01   -0.37488E-01  3248   0.624E-01-0.550E-05
CGA:   4    -0.570117179375E+03   -0.12033E-01   -0.12035E-01  3248   0.221E-01-0.658E-04
CGA:   5    -0.570120337335E+03   -0.31580E-02   -0.31593E-02  3248   0.783E-02 0.876E-05
CGA:   6    -0.570121273137E+03   -0.93580E-03   -0.93420E-03  3248   0.261E-02 0.523E-05
CGA:   7    -0.570121628166E+03   -0.35503E-03   -0.35566E-03  3248   0.947E-03 0.153E-04
CGA:   8    -0.570121791937E+03   -0.16377E-03   -0.16375E-03  3248   0.381E-03 0.488E-05
CGA:   9    -0.570121857030E+03   -0.65093E-04   -0.65095E-04  3248   0.214E-03-0.101E-05
CGA:  10    -0.570121891964E+03   -0.34935E-04   -0.34921E-04  3248   0.123E-03-0.479E-05
CGA:  11    -0.570121914303E+03   -0.22339E-04   -0.22404E-04  3248   0.747E-04-0.338E-05
CGA:  12    -0.570121926281E+03   -0.11978E-04   -0.11977E-04  3248   0.458E-04-0.497E-06
CGA:  13    -0.570121934969E+03   -0.86875E-05   -0.86364E-05  3248   0.218E-04 0.220E-05
  22 F= -.57012193E+03 E0= -.57011639E+03  d E =-.183298E-02  mag=    70.0000
       N       E                     dE             d eps       ncg     rms          ort
SDA:   1    -0.569963337157E+03    0.15859E+00    0.00000E+00  3248   0.593E+00 0.000E+00
CGA:   2    -0.570051022357E+03   -0.87685E-01   -0.87527E-01  3248   0.325E+00-0.242E-02
CGA:   3    -0.570093283531E+03   -0.42261E-01   -0.42650E-01  3248   0.125E+00 0.219E-02
CGA:   4    -0.570111193177E+03   -0.17910E-01   -0.17857E-01  3248   0.542E-01-0.734E-03
CGA:   5    -0.570118787859E+03   -0.75947E-02   -0.76050E-02  3248   0.133E-01 0.124E-03
CGA:   6    -0.570120889927E+03   -0.21021E-02   -0.21018E-02  3248   0.435E-02-0.161E-04
CGA:   7    -0.570121436081E+03   -0.54615E-03   -0.54730E-03  3248   0.188E-02 0.973E-05
CGA:   8    -0.570121749862E+03   -0.31378E-03   -0.31380E-03  3248   0.705E-03-0.334E-05
CGA:   9    -0.570121876882E+03   -0.12702E-03   -0.12702E-03  3248   0.398E-03-0.629E-06
CGA:  10    -0.570121944044E+03   -0.67162E-04   -0.67183E-04  3248   0.270E-03-0.342E-05
CGA:  11    -0.570121994742E+03   -0.50698E-04   -0.50732E-04  3248   0.150E-03-0.147E-05
CGA:  12    -0.570122026838E+03   -0.32096E-04   -0.32123E-04  3248   0.119E-03-0.501E-06
CGA:  13    -0.570122046971E+03   -0.20134E-04   -0.20130E-04  3248   0.690E-04 0.173E-05
CGA:  14    -0.570122061149E+03   -0.14178E-04   -0.14121E-04  3248   0.427E-04 0.168E-05
CGA:  15    -0.570122069070E+03   -0.79210E-05   -0.79092E-05  3248   0.256E-04 0.985E-06
  23 F= -.57012207E+03 E0= -.57011655E+03  d E =-.134102E-03  mag=    70.0000
       N       E                     dE             d eps       ncg     rms          ort
SDA:   1    -0.569677098814E+03    0.44496E+00    0.00000E+00  3248   0.160E+01 0.000E+00
CGA:   2    -0.569934655460E+03   -0.25756E+00   -0.25727E+00  3248   0.890E+00-0.120E-01
CGA:   3    -0.570047607313E+03   -0.11295E+00   -0.11490E+00  3248   0.320E+00 0.903E-02
CGA:   4    -0.570095044017E+03   -0.47437E-01   -0.47175E-01  3248   0.146E+00-0.411E-02
CGA:   5    -0.570114698543E+03   -0.19655E-01   -0.19718E-01  3248   0.343E-01 0.550E-03
CGA:   6    -0.570120178647E+03   -0.54801E-02   -0.54793E-02  3248   0.980E-02-0.511E-04
CGA:   7    -0.570121578195E+03   -0.13995E-02   -0.14011E-02  3248   0.506E-02 0.263E-04
CGA:   8    -0.570122359468E+03   -0.78127E-03   -0.78096E-03  3248   0.178E-02-0.164E-04
CGA:   9    -0.570122699290E+03   -0.33982E-03   -0.33972E-03  3248   0.107E-02 0.125E-05
CGA:  10    -0.570122893491E+03   -0.19420E-03   -0.19433E-03  3248   0.747E-03-0.637E-05
CGA:  11    -0.570123037944E+03   -0.14445E-03   -0.14441E-03  3248   0.438E-03 0.757E-06
CGA:  12    -0.570123135006E+03   -0.97062E-04   -0.97079E-04  3248   0.354E-03-0.111E-06
CGA:  13    -0.570123194505E+03   -0.59500E-04   -0.59506E-04  3248   0.195E-03 0.306E-05
CGA:  14    -0.570123237445E+03   -0.42940E-04   -0.42856E-04  3248   0.116E-03 0.182E-05
CGA:  15    -0.570123258818E+03   -0.21372E-04   -0.21367E-04  3248   0.773E-04 0.450E-06
CGA:  16    -0.570123273432E+03   -0.14614E-04   -0.14631E-04  3248   0.430E-04-0.105E-05
CGA:  17    -0.570123281648E+03   -0.82158E-05   -0.82209E-05  3248   0.271E-04-0.301E-06
  24 F= -.57012328E+03 E0= -.57011783E+03  d E =-.121258E-02  mag=    70.0000
       N       E                     dE             d eps       ncg     rms          ort
SDA:   1    -0.541496379719E+03    0.28627E+02    0.00000E+00  3248   0.922E+02 0.000E+00
CGA:   2    -0.557939504407E+03   -0.16443E+02   -0.16442E+02  3248   0.516E+02 0.147E+00
CGA:   3    -0.565919362726E+03   -0.79799E+01   -0.79896E+01  3248   0.171E+02 0.193E+00
CGA:   4    -0.568654620830E+03   -0.27353E+01   -0.27216E+01  3248   0.775E+01-0.401E+00
CGA:   5    -0.569384606716E+03   -0.72999E+00   -0.80195E+00  3248   0.279E+01 0.224E+00
CGA:   6    -0.569762906625E+03   -0.37830E+00   -0.35443E+00  3248   0.790E+00-0.559E-01
CGA:   7    -0.569862744020E+03   -0.99837E-01   -0.10102E+00  3248   0.327E+00 0.529E-02
CGA:   8    -0.569909523309E+03   -0.46779E-01   -0.46430E-01  3248   0.168E+00-0.479E-02
CGA:   9    -0.569933035120E+03   -0.23512E-01   -0.23585E-01  3248   0.696E-01 0.106E-02
CGA:  10    -0.569943469691E+03   -0.10435E-01   -0.10397E-01  3248   0.580E-01-0.954E-03
CGA:  11    -0.569950208866E+03   -0.67392E-02   -0.68247E-02  3248   0.242E-01 0.306E-03
CGA:  12    -0.569954849177E+03   -0.46403E-02   -0.46453E-02  3248   0.176E-01-0.889E-04
CGA:  13    -0.569957387309E+03   -0.25381E-02   -0.25411E-02  3248   0.103E-01 0.709E-04
CGA:  14    -0.569959294169E+03   -0.19069E-02   -0.19098E-02  3248   0.690E-02-0.813E-04
CGA:  15    -0.569960181436E+03   -0.88727E-03   -0.89128E-03  3248   0.489E-02 0.221E-04
CGA:  16    -0.569960955117E+03   -0.77368E-03   -0.77352E-03  3248   0.286E-02-0.282E-04
CGA:  17    -0.569961420454E+03   -0.46534E-03   -0.46530E-03  3248   0.187E-02 0.540E-05
CGA:  18    -0.569961753446E+03   -0.33299E-03   -0.33309E-03  3248   0.122E-02-0.329E-05
CGA:  19    -0.569961940519E+03   -0.18707E-03   -0.18715E-03  3248   0.854E-03 0.716E-05
CGA:  20    -0.569962063843E+03   -0.12332E-03   -0.12329E-03  3248   0.527E-03 0.145E-05
CGA:  21    -0.569962137335E+03   -0.73493E-04   -0.73551E-04  3248   0.265E-03 0.169E-05
CGA:  22    -0.569962184266E+03   -0.46931E-04   -0.46967E-04  3248   0.149E-03-0.198E-05
CGA:  23    -0.569962206668E+03   -0.22402E-04   -0.22380E-04  3248   0.104E-03-0.274E-05
CGA:  24    -0.569962222576E+03   -0.15909E-04   -0.15894E-04  3248   0.677E-04-0.330E-05
CGA:  25    -0.569962231710E+03   -0.91338E-05   -0.91020E-05  3248   0.465E-04-0.159E-05
  25 F= -.56996223E+03 E0= -.56995655E+03  d E =0.161050E+00  mag=    70.0000
       N       E                     dE             d eps       ncg     rms          ort
SDA:   1    -0.558918625625E+03    0.11044E+02    0.00000E+00  3248   0.426E+02 0.000E+00
CGA:   2    -0.564787636550E+03   -0.58690E+01   -0.58687E+01  3248   0.216E+02-0.345E-02
CGA:   3    -0.568438915005E+03   -0.36513E+01   -0.36506E+01  3248   0.673E+01 0.398E-01
CGA:   4    -0.569655850403E+03   -0.12169E+01   -0.12176E+01  3248   0.229E+01-0.173E-01
CGA:   5    -0.569967943403E+03   -0.31209E+00   -0.31483E+00  3248   0.822E+00 0.384E-01
CGA:   6    -0.570084064010E+03   -0.11612E+00   -0.11499E+00  3248   0.235E+00-0.179E-01
CGA:   7    -0.570119139089E+03   -0.35075E-01   -0.35108E-01  3248   0.833E-01 0.289E-02
CGA:   8    -0.570133995039E+03   -0.14856E-01   -0.14888E-01  3248   0.363E-01-0.102E-02
CGA:   9    -0.570139783893E+03   -0.57889E-02   -0.57874E-02  3248   0.166E-01 0.344E-03
CGA:  10    -0.570142741458E+03   -0.29576E-02   -0.29624E-02  3248   0.863E-02-0.184E-03
CGA:  11    -0.570144341266E+03   -0.15998E-02   -0.15984E-02  3248   0.421E-02 0.264E-04
CGA:  12    -0.570145139094E+03   -0.79783E-03   -0.79855E-03  3248   0.260E-02-0.157E-04
CGA:  13    -0.570145606022E+03   -0.46693E-03   -0.46640E-03  3248   0.133E-02 0.254E-04
CGA:  14    -0.570145886154E+03   -0.28013E-03   -0.27960E-03  3248   0.803E-03 0.133E-04
CGA:  15    -0.570146038535E+03   -0.15238E-03   -0.15213E-03  3248   0.512E-03 0.101E-04
CGA:  16    -0.570146145268E+03   -0.10673E-03   -0.10682E-03  3248   0.321E-03-0.163E-05
CGA:  17    -0.570146213975E+03   -0.68707E-04   -0.68869E-04  3248   0.229E-03-0.374E-05
CGA:  18    -0.570146259059E+03   -0.45084E-04   -0.45244E-04  3248   0.141E-03-0.538E-05
CGA:  19    -0.570146287458E+03   -0.28399E-04   -0.28454E-04  3248   0.856E-04-0.168E-05
CGA:  20    -0.570146303196E+03   -0.15737E-04   -0.15736E-04  3248   0.461E-04 0.130E-06
CGA:  21    -0.570146312327E+03   -0.91315E-05   -0.90982E-05  3248   0.259E-04 0.147E-05
  26 F= -.57014631E+03 E0= -.57014136E+03  d E =-.184081E+00  mag=    70.0000
       N       E                     dE             d eps       ncg     rms          ort
SDA:   1    -0.570009701704E+03    0.13660E+00    0.00000E+00  3248   0.691E+00 0.000E+00
CGA:   2    -0.570086798188E+03   -0.77096E-01   -0.77027E-01  3248   0.248E+00 0.728E-04
CGA:   3    -0.570131465536E+03   -0.44667E-01   -0.44665E-01  3248   0.854E-01 0.198E-03
CGA:   4    -0.570146570839E+03   -0.15105E-01   -0.15106E-01  3248   0.388E-01-0.231E-03
CGA:   5    -0.570151339290E+03   -0.47685E-02   -0.47997E-02  3248   0.120E-01 0.489E-04
CGA:   6    -0.570153106135E+03   -0.17668E-02   -0.17649E-02  3248   0.326E-02-0.267E-04
CGA:   7    -0.570153644669E+03   -0.53853E-03   -0.53862E-03  3248   0.123E-02 0.138E-04
CGA:   8    -0.570153849558E+03   -0.20489E-03   -0.20489E-03  3248   0.554E-03 0.156E-05
CGA:   9    -0.570153935501E+03   -0.85943E-04   -0.85951E-04  3248   0.244E-03-0.298E-06
CGA:  10    -0.570153983157E+03   -0.47655E-04   -0.47745E-04  3248   0.131E-03-0.335E-05
CGA:  11    -0.570154008950E+03   -0.25793E-04   -0.25801E-04  3248   0.812E-04-0.310E-06
CGA:  12    -0.570154023960E+03   -0.15010E-04   -0.15005E-04  3248   0.499E-04 0.466E-06
CGA:  13    -0.570154034214E+03   -0.10255E-04   -0.10217E-04  3248   0.282E-04 0.121E-05
CGA:  14    -0.570154040274E+03   -0.60592E-05   -0.60421E-05  3248   0.185E-04 0.493E-06
  27 F= -.57015404E+03 E0= -.57014911E+03  d E =-.772795E-02  mag=    70.0000
       N       E                     dE             d eps       ncg     rms          ort
SDA:   1    -0.569836826572E+03    0.31721E+00    0.00000E+00  3248   0.138E+01 0.000E+00
CGA:   2    -0.570008625384E+03   -0.17180E+00   -0.17196E+00  3248   0.576E+00 0.429E-03
CGA:   3    -0.570108285930E+03   -0.99661E-01   -0.99661E-01  3248   0.172E+00 0.645E-05
CGA:   4    -0.570141289519E+03   -0.33004E-01   -0.33004E-01  3248   0.650E-01-0.487E-04
CGA:   5    -0.570150729247E+03   -0.94397E-02   -0.94471E-02  3248   0.203E-01 0.636E-04
CGA:   6    -0.570153479682E+03   -0.27504E-02   -0.27455E-02  3248   0.634E-02-0.218E-04
CGA:   7    -0.570154458640E+03   -0.97896E-03   -0.97964E-03  3248   0.248E-02 0.267E-04
CGA:   8    -0.570154884537E+03   -0.42590E-03   -0.42590E-03  3248   0.100E-02 0.260E-06
CGA:   9    -0.570155072882E+03   -0.18835E-03   -0.18838E-03  3248   0.510E-03-0.304E-05
CGA:  10    -0.570155171177E+03   -0.98294E-04   -0.98448E-04  3248   0.338E-03-0.641E-05
CGA:  11    -0.570155232387E+03   -0.61210E-04   -0.61216E-04  3248   0.181E-03-0.749E-06
CGA:  12    -0.570155273309E+03   -0.40922E-04   -0.40834E-04  3248   0.114E-03 0.171E-05
CGA:  13    -0.570155296272E+03   -0.22962E-04   -0.22899E-04  3248   0.727E-04 0.259E-05
CGA:  14    -0.570155310340E+03   -0.14069E-04   -0.14053E-04  3248   0.398E-04 0.135E-05
CGA:  15    -0.570155318825E+03   -0.84849E-05   -0.84628E-05  3248   0.237E-04 0.700E-06
  28 F= -.57015532E+03 E0= -.57015030E+03  d E =-.127855E-02  mag=    70.0000
       N       E                     dE             d eps       ncg     rms          ort
SDA:   1    -0.570126732605E+03    0.28578E-01    0.00000E+00  3248   0.112E+00 0.000E+00
CGA:   2    -0.570142248512E+03   -0.15516E-01   -0.15540E-01  3248   0.535E-01 0.132E-03
CGA:   3    -0.570150026800E+03   -0.77783E-02   -0.77832E-02  3248   0.193E-01 0.418E-04
CGA:   4    -0.570153249965E+03   -0.32232E-02   -0.32223E-02  3248   0.805E-02-0.424E-04
CGA:   5    -0.570154374573E+03   -0.11246E-02   -0.11257E-02  3248   0.222E-02 0.561E-05
CGA:   6    -0.570154715364E+03   -0.34079E-03   -0.34066E-03  3248   0.590E-03-0.313E-05
CGA:   7    -0.570154809334E+03   -0.93970E-04   -0.93988E-04  3248   0.275E-03 0.462E-06
CGA:   8    -0.570154855264E+03   -0.45931E-04   -0.45918E-04  3248   0.112E-03-0.198E-05
CGA:   9    -0.570154876431E+03   -0.21167E-04   -0.21181E-04  3248   0.624E-04-0.873E-06
CGA:  10    -0.570154889174E+03   -0.12742E-04   -0.12766E-04  3248   0.418E-04-0.707E-06
CGA:  11    -0.570154897051E+03   -0.78774E-05   -0.78699E-05  3248   0.265E-04 0.491E-06
  29 F= -.57015490E+03 E0= -.57014985E+03  d E =0.421774E-03  mag=    70.0000
       N       E                     dE             d eps       ncg     rms          ort
SDA:   1    -0.569962064803E+03    0.19282E+00    0.00000E+00  3248   0.681E+00 0.000E+00
CGA:   2    -0.570071479746E+03   -0.10941E+00   -0.10967E+00  3248   0.325E+00 0.642E-02
CGA:   3    -0.570122175973E+03   -0.50696E-01   -0.50500E-01  3248   0.151E+00-0.283E-02
CGA:   4    -0.570145244063E+03   -0.23068E-01   -0.23042E-01  3248   0.450E-01-0.448E-03
CGA:   5    -0.570151931200E+03   -0.66871E-02   -0.66969E-02  3248   0.150E-01 0.130E-03
CGA:   6    -0.570154027855E+03   -0.20967E-02   -0.20924E-02  3248   0.390E-02-0.358E-04
CGA:   7    -0.570154674803E+03   -0.64695E-03   -0.64704E-03  3248   0.170E-02 0.362E-05
CGA:   8    -0.570154947358E+03   -0.27255E-03   -0.27239E-03  3248   0.640E-03-0.961E-05
CGA:   9    -0.570155071593E+03   -0.12424E-03   -0.12418E-03  3248   0.337E-03 0.138E-05
CGA:  10    -0.570155137228E+03   -0.65635E-04   -0.65654E-04  3248   0.195E-03-0.426E-06
CGA:  11    -0.570155176107E+03   -0.38879E-04   -0.38829E-04  3248   0.126E-03 0.175E-05
CGA:  12    -0.570155201610E+03   -0.25502E-04   -0.25486E-04  3248   0.825E-04 0.675E-06
CGA:  13    -0.570155217999E+03   -0.16390E-04   -0.16377E-04  3248   0.491E-04 0.576E-06
CGA:  14    -0.570155228581E+03   -0.10581E-04   -0.10592E-04  3248   0.301E-04-0.301E-06
CGA:  15    -0.570155234150E+03   -0.55689E-05   -0.55722E-05  3248   0.177E-04-0.417E-06
  30 F= -.57015523E+03 E0= -.57015016E+03  d E =-.337099E-03  mag=    70.0000
       N       E                     dE             d eps       ncg     rms          ort
SDA:   1    -0.569442111236E+03    0.71312E+00    0.00000E+00  3248   0.235E+01 0.000E+00
CGA:   2    -0.569860290582E+03   -0.41818E+00   -0.41835E+00  3248   0.125E+01 0.347E-01
CGA:   3    -0.570055399680E+03   -0.19511E+00   -0.19302E+00  3248   0.457E+00-0.210E-01
CGA:   4    -0.570127403854E+03   -0.72004E-01   -0.72072E-01  3248   0.146E+00 0.136E-02
CGA:   5    -0.570148088765E+03   -0.20685E-01   -0.20582E-01  3248   0.498E-01-0.610E-03
CGA:   6    -0.570154680269E+03   -0.65915E-02   -0.65961E-02  3248   0.131E-01 0.157E-04
CGA:   7    -0.570156815505E+03   -0.21352E-02   -0.21345E-02  3248   0.602E-02-0.361E-04
CGA:   8    -0.570157763891E+03   -0.94839E-03   -0.94896E-03  3248   0.247E-02 0.102E-04
CGA:   9    -0.570158191296E+03   -0.42741E-03   -0.42741E-03  3248   0.141E-02-0.831E-05
CGA:  10    -0.570158464243E+03   -0.27295E-03   -0.27279E-03  3248   0.825E-03 0.486E-05
CGA:  11    -0.570158624567E+03   -0.16032E-03   -0.16041E-03  3248   0.575E-03-0.253E-05
CGA:  12    -0.570158735685E+03   -0.11112E-03   -0.11107E-03  3248   0.353E-03 0.171E-05
CGA:  13    -0.570158807709E+03   -0.72024E-04   -0.72012E-04  3248   0.208E-03 0.778E-06
CGA:  14    -0.570158846740E+03   -0.39031E-04   -0.39019E-04  3248   0.135E-03 0.979E-06
CGA:  15    -0.570158872134E+03   -0.25394E-04   -0.25398E-04  3248   0.747E-04-0.264E-06
CGA:  16    -0.570158887545E+03   -0.15411E-04   -0.15430E-04  3248   0.487E-04-0.696E-06
CGA:  17    -0.570158896523E+03   -0.89783E-05   -0.89798E-05  3248   0.292E-04-0.166E-06
  31 F= -.57015890E+03 E0= -.57015371E+03  d E =-.366237E-02  mag=    70.0000
       N       E                     dE             d eps       ncg     rms          ort
SDA:   1    -0.546830271380E+03    0.23329E+02    0.00000E+00  3248   0.837E+02 0.000E+00
CGA:   2    -0.559542114786E+03   -0.12712E+02   -0.12715E+02  3248   0.423E+02 0.706E-01
CGA:   3    -0.566367857846E+03   -0.68257E+01   -0.68361E+01  3248   0.151E+02 0.260E+00
CGA:   4    -0.568940440764E+03   -0.25726E+01   -0.25678E+01  3248   0.534E+01-0.218E+00
CGA:   5    -0.569629135756E+03   -0.68869E+00   -0.71350E+00  3248   0.169E+01 0.185E+00
CGA:   6    -0.569887095245E+03   -0.25796E+00   -0.25588E+00  3248   0.397E+00-0.136E-01
CGA:   7    -0.569963331560E+03   -0.76236E-01   -0.76156E-01  3248   0.166E+00 0.253E-02
CGA:   8    -0.569992311748E+03   -0.28980E-01   -0.28979E-01  3248   0.712E-01-0.331E-03
CGA:   9    -0.570005593568E+03   -0.13282E-01   -0.13279E-01  3248   0.359E-01 0.175E-03
CGA:  10    -0.570012975299E+03   -0.73817E-02   -0.73917E-02  3248   0.196E-01-0.209E-03
CGA:  11    -0.570017123399E+03   -0.41481E-02   -0.41388E-02  3248   0.122E-01 0.176E-03
CGA:  12    -0.570019546906E+03   -0.24235E-02   -0.24270E-02  3248   0.757E-02-0.110E-03
CGA:  13    -0.570021046013E+03   -0.14991E-02   -0.14973E-02  3248   0.421E-02 0.573E-04
CGA:  14    -0.570021912771E+03   -0.86676E-03   -0.86709E-03  3248   0.259E-02-0.669E-05
CGA:  15    -0.570022405566E+03   -0.49279E-03   -0.49279E-03  3248   0.142E-02 0.977E-06
CGA:  16    -0.570022724211E+03   -0.31865E-03   -0.31872E-03  3248   0.827E-03-0.266E-05
CGA:  17    -0.570022900361E+03   -0.17615E-03   -0.17629E-03  3248   0.493E-03-0.418E-05
CGA:  18    -0.570022999366E+03   -0.99005E-04   -0.99028E-04  3248   0.247E-03-0.144E-05
CGA:  19    -0.570023052575E+03   -0.53209E-04   -0.53202E-04  3248   0.141E-03 0.221E-06
CGA:  20    -0.570023079520E+03   -0.26945E-04   -0.26945E-04  3248   0.760E-04-0.287E-06
CGA:  21    -0.570023095960E+03   -0.16440E-04   -0.16448E-04  3248   0.473E-04-0.304E-06
CGA:  22    -0.570023105727E+03   -0.97673E-05   -0.97856E-05  3248   0.342E-04-0.987E-06
  32 F= -.57002311E+03 E0= -.57001786E+03  d E =0.135791E+00  mag=    70.0000
       N       E                     dE             d eps       ncg     rms          ort
SDA:   1    -0.560643152676E+03    0.93799E+01    0.00000E+00  3248   0.412E+02 0.000E+00
CGA:   2    -0.565638413659E+03   -0.49953E+01   -0.50025E+01  3248   0.166E+02 0.103E-01
CGA:   3    -0.568598372172E+03   -0.29600E+01   -0.29604E+01  3248   0.613E+01 0.212E-01
CGA:   4    -0.569740253426E+03   -0.11419E+01   -0.11418E+01  3248   0.193E+01-0.144E-01
CGA:   5    -0.570020848187E+03   -0.28059E+00   -0.28278E+00  3248   0.669E+00 0.118E-01
CGA:   6    -0.570114522762E+03   -0.93675E-01   -0.91834E-01  3248   0.210E+00-0.520E-02
CGA:   7    -0.570145459706E+03   -0.30937E-01   -0.31193E-01  3248   0.824E-01 0.210E-02
CGA:   8    -0.570158976751E+03   -0.13517E-01   -0.13481E-01  3248   0.326E-01-0.676E-03
CGA:   9    -0.570164590642E+03   -0.56139E-02   -0.56175E-02  3248   0.148E-01 0.234E-03
CGA:  10    -0.570167294207E+03   -0.27036E-02   -0.27039E-02  3248   0.926E-02-0.119E-03
CGA:  11    -0.570168866606E+03   -0.15724E-02   -0.15737E-02  3248   0.434E-02 0.721E-04
CGA:  12    -0.570169832228E+03   -0.96562E-03   -0.96630E-03  3248   0.288E-02-0.751E-05
CGA:  13    -0.570170353153E+03   -0.52092E-03   -0.52095E-03  3248   0.182E-02 0.179E-04
CGA:  14    -0.570170704894E+03   -0.35174E-03   -0.35193E-03  3248   0.997E-03-0.115E-04
CGA:  15    -0.570170900771E+03   -0.19588E-03   -0.19582E-03  3248   0.598E-03 0.152E-05
CGA:  16    -0.570171006648E+03   -0.10588E-03   -0.10585E-03  3248   0.358E-03-0.176E-05
CGA:  17    -0.570171079441E+03   -0.72792E-04   -0.72744E-04  3248   0.220E-03 0.180E-05
CGA:  18    -0.570171120941E+03   -0.41500E-04   -0.41501E-04  3248   0.138E-03 0.431E-07
CGA:  19    -0.570171147145E+03   -0.26204E-04   -0.26206E-04  3248   0.829E-04-0.375E-06
CGA:  20    -0.570171163764E+03   -0.16618E-04   -0.16633E-04  3248   0.515E-04-0.824E-06
CGA:  21    -0.570171173288E+03   -0.95247E-05   -0.95259E-05  3248   0.313E-04-0.971E-06
  33 F= -.57017117E+03 E0= -.57016593E+03  d E =-.148068E+00  mag=    70.0000
       N       E                     dE             d eps       ncg     rms          ort
SDA:   1    -0.569969371275E+03    0.20179E+00    0.00000E+00  3248   0.760E+00 0.000E+00
CGA:   2    -0.570091946024E+03   -0.12257E+00   -0.12264E+00  3248   0.337E+00 0.875E-03
CGA:   3    -0.570144800051E+03   -0.52854E-01   -0.52778E-01  3248   0.140E+00-0.803E-03
CGA:   4    -0.570166794418E+03   -0.21994E-01   -0.22012E-01  3248   0.536E-01 0.222E-03
CGA:   5    -0.570173875885E+03   -0.70815E-02   -0.70370E-02  3248   0.195E-01-0.105E-03
CGA:   6    -0.570176471833E+03   -0.25959E-02   -0.26010E-02  3248   0.480E-02 0.127E-04
CGA:   7    -0.570177220947E+03   -0.74911E-03   -0.74837E-03  3248   0.216E-02-0.118E-04
CGA:   8    -0.570177564546E+03   -0.34360E-03   -0.34380E-03  3248   0.980E-03 0.329E-05
CGA:   9    -0.570177716797E+03   -0.15225E-03   -0.15207E-03  3248   0.502E-03-0.545E-05
CGA:  10    -0.570177814687E+03   -0.97890E-04   -0.97898E-04  3248   0.287E-03-0.940E-06
CGA:  11    -0.570177868008E+03   -0.53321E-04   -0.53319E-04  3248   0.197E-03 0.662E-06
CGA:  12    -0.570177903545E+03   -0.35537E-04   -0.35526E-04  3248   0.118E-03 0.235E-05
CGA:  13    -0.570177927331E+03   -0.23786E-04   -0.23766E-04  3248   0.708E-04 0.963E-06
CGA:  14    -0.570177940254E+03   -0.12923E-04   -0.12922E-04  3248   0.461E-04 0.890E-07
CGA:  15    -0.570177948439E+03   -0.81850E-05   -0.81843E-05  3248   0.239E-04-0.126E-06
  34 F= -.57017795E+03 E0= -.57017260E+03  d E =-.677515E-02  mag=    70.0000
       N       E                     dE             d eps       ncg     rms          ort
SDA:   1    -0.568736141529E+03    0.14418E+01    0.00000E+00  3248   0.528E+01 0.000E+00
CGA:   2    -0.569575484401E+03   -0.83934E+00   -0.84307E+00  3248   0.238E+01 0.806E-01
CGA:   3    -0.569930078201E+03   -0.35459E+00   -0.34987E+00  3248   0.110E+01-0.398E-01
CGA:   4    -0.570091066984E+03   -0.16099E+00   -0.16080E+00  3248   0.395E+00-0.305E-02
CGA:   5    -0.570148217622E+03   -0.57151E-01   -0.57047E-01  3248   0.132E+00-0.130E-02
CGA:   6    -0.570165238979E+03   -0.17021E-01   -0.17108E-01  3248   0.417E-01 0.308E-03
CGA:   7    -0.570170354453E+03   -0.51155E-02   -0.50266E-02  3248   0.179E-01-0.124E-03
CGA:   8    -0.570173260757E+03   -0.29063E-02   -0.29077E-02  3248   0.724E-02 0.118E-03
CGA:   9    -0.570174474306E+03   -0.12135E-02   -0.12134E-02  3248   0.420E-02-0.472E-04
CGA:  10    -0.570175135403E+03   -0.66110E-03   -0.66158E-03  3248   0.266E-02 0.185E-04
CGA:  11    -0.570175589768E+03   -0.45437E-03   -0.45440E-03  3248   0.168E-02-0.650E-05
CGA:  12    -0.570175889467E+03   -0.29970E-03   -0.29962E-03  3248   0.109E-02 0.678E-05
CGA:  13    -0.570176102906E+03   -0.21344E-03   -0.21333E-03  3248   0.699E-03 0.451E-05
CGA:  14    -0.570176210783E+03   -0.10788E-03   -0.10796E-03  3248   0.452E-03 0.284E-05
CGA:  15    -0.570176290930E+03   -0.80148E-04   -0.80159E-04  3248   0.230E-03-0.527E-06
CGA:  16    -0.570176331885E+03   -0.40954E-04   -0.40946E-04  3248   0.157E-03 0.632E-06
CGA:  17    -0.570176357651E+03   -0.25767E-04   -0.25762E-04  3248   0.836E-04-0.488E-06
CGA:  18    -0.570176372712E+03   -0.15061E-04   -0.15063E-04  3248   0.587E-04-0.205E-06
CGA:  19    -0.570176382239E+03   -0.95268E-05   -0.95251E-05  3248   0.299E-04-0.180E-06
  35 F= -.57017638E+03 E0= -.57017069E+03  d E =0.156620E-02  mag=    70.0000
       N       E                     dE             d eps       ncg     rms          ort
SDA:   1    -0.570140193993E+03    0.36179E-01    0.00000E+00  3248   0.139E+00 0.000E+00
CGA:   2    -0.570157645928E+03   -0.17452E-01   -0.17686E-01  3248   0.820E-01 0.862E-03
CGA:   3    -0.570168406333E+03   -0.10760E-01   -0.10644E-01  3248   0.330E-01-0.597E-03
CGA:   4    -0.570173198723E+03   -0.47924E-02   -0.47964E-02  3248   0.125E-01 0.747E-04
CGA:   5    -0.570174982053E+03   -0.17833E-02   -0.17805E-02  3248   0.377E-02-0.471E-04
CGA:   6    -0.570175484492E+03   -0.50244E-03   -0.50325E-03  3248   0.143E-02 0.528E-05
CGA:   7    -0.570175649487E+03   -0.16499E-03   -0.16454E-03  3248   0.473E-03-0.868E-06
CGA:   8    -0.570175719797E+03   -0.70310E-04   -0.70327E-04  3248   0.227E-03 0.863E-06
CGA:   9    -0.570175755580E+03   -0.35783E-04   -0.35784E-04  3248   0.914E-04 0.379E-06
CGA:  10    -0.570175770229E+03   -0.14649E-04   -0.14650E-04  3248   0.628E-04-0.670E-06
CGA:  11    -0.570175780100E+03   -0.98713E-05   -0.98707E-05  3248   0.354E-04-0.432E-06
  36 F= -.57017578E+03 E0= -.57017005E+03  d E =0.602139E-03  mag=    70.0000
