       N       E                     dE             d eps       ncg     rms          ort
DAV:   1     0.147027014446E+05    0.14703E+05   -0.58401E+05  2640   0.173E+03
DAV:   2     0.123520697400E+04   -0.13467E+05   -0.12959E+05  2640   0.523E+02
DAV:   3    -0.132134991095E+04   -0.25566E+04   -0.24779E+04  2640   0.206E+02
DAV:   4    -0.148565394374E+04   -0.16430E+03   -0.16039E+03  2640   0.598E+01
DAV:   5    -0.149402416323E+04   -0.83702E+01   -0.77849E+01  2640   0.119E+01
SDA:   6     0.620223168127E+02    0.15560E+04   -0.77849E+01  2640   0.942E+04 0.000E+00
CGA:   7    -0.904905040017E+03   -0.96693E+03   -0.11166E+04  2640   0.118E+04 0.398E+03
CGA:   8    -0.963775934790E+03   -0.58871E+02   -0.58482E+02  2640   0.740E+03 0.384E+02
CGA:   9    -0.101009206433E+04   -0.46316E+02   -0.64089E+02  2640   0.124E+04-0.129E+03
CGA:  10    -0.106315348880E+04   -0.53061E+02   -0.41984E+02  2640   0.412E+03-0.209E+03
CGA:  11    -0.108046894191E+04   -0.17315E+02   -0.21381E+02  2640   0.326E+03-0.714E+02
CGA:  12    -0.110040056018E+04   -0.19932E+02   -0.18254E+02  2640   0.206E+03-0.345E+02
CGA:  13    -0.110580249135E+04   -0.54019E+01   -0.97806E+01  2640   0.361E+03-0.746E+02
CGA:  14    -0.111028850597E+04   -0.44860E+01   -0.68532E+01  2640   0.134E+03-0.862E+02
CGA:  15    -0.111279585108E+04   -0.25073E+01   -0.47963E+01  2640   0.155E+03-0.433E+02
CGA:  16    -0.111510866815E+04   -0.23128E+01   -0.36467E+01  2640   0.795E+02-0.269E+02
CGA:  17    -0.111832142251E+04   -0.32128E+01   -0.32424E+01  2640   0.648E+02-0.316E+01
CGA:  18    -0.112045654752E+04   -0.21351E+01   -0.22533E+01  2640   0.313E+02-0.166E+01
CGA:  19    -0.112310968239E+04   -0.26531E+01   -0.27340E+01  2640   0.312E+02 0.140E+00
CGA:  20    -0.112450593422E+04   -0.13963E+01   -0.16389E+01  2640   0.280E+02-0.321E+01
CGA:  21    -0.112562409965E+04   -0.11182E+01   -0.11873E+01  2640   0.105E+02-0.138E+01
CGA:  22    -0.112638186145E+04   -0.75776E+00   -0.75808E+00  2640   0.126E+02-0.373E-01
CGA:  23    -0.112696432683E+04   -0.58247E+00   -0.59992E+00  2640   0.794E+01-0.417E+00
CGA:  24    -0.112751498800E+04   -0.55066E+00   -0.56582E+00  2640   0.522E+01-0.404E-01
CGA:  25    -0.112784900931E+04   -0.33402E+00   -0.33786E+00  2640   0.389E+01-0.314E-01
CGA:  26    -0.112806376044E+04   -0.21475E+00   -0.22007E+00  2640   0.225E+01-0.471E-01
CGA:  27    -0.112827144851E+04   -0.20769E+00   -0.20890E+00  2640   0.157E+01 0.275E-01
CGA:  28    -0.112841756820E+04   -0.14612E+00   -0.14669E+00  2640   0.967E+00 0.106E-01
CGA:  29    -0.112848517164E+04   -0.67603E-01   -0.68046E-01  2640   0.773E+00 0.216E-03
CGA:  30    -0.112854963363E+04   -0.64462E-01   -0.64929E-01  2640   0.429E+00 0.526E-02
CGA:  31    -0.112859826567E+04   -0.48632E-01   -0.48649E-01  2640   0.350E+00-0.116E-02
CGA:  32    -0.112862964316E+04   -0.31377E-01   -0.31464E-01  2640   0.255E+00 0.217E-02
CGA:  33    -0.112864946066E+04   -0.19818E-01   -0.20015E-01  2640   0.175E+00 0.152E-02
CGA:  34    -0.112866457574E+04   -0.15115E-01   -0.15088E-01  2640   0.117E+00-0.374E-03
CGA:  35    -0.112868112407E+04   -0.16548E-01   -0.16555E-01  2640   0.948E-01-0.181E-03
CGA:  36    -0.112869099295E+04   -0.98689E-02   -0.98688E-02  2640   0.910E-01 0.173E-03
SDA:  37    -0.112869781629E+04   -0.68233E-02   -0.68020E-02  2640   0.552E-01-0.228E-03
CGA:  38    -0.112870173913E+04   -0.39228E-02   -0.39202E-02  2640   0.419E-01-0.392E-04
CGA:  39    -0.112870631910E+04   -0.45800E-02   -0.45831E-02  2640   0.413E-01-0.266E-03
CGA:  40    -0.112871037200E+04   -0.40529E-02   -0.40521E-02  2640   0.150E-01-0.225E-03
CGA:  41    -0.112871235298E+04   -0.19810E-02   -0.19890E-02  2640   0.965E-02-0.233E-03
CGA:  42    -0.112871378399E+04   -0.14310E-02   -0.14425E-02  2640   0.134E-01-0.221E-03
CGA:  43    -0.112871517400E+04   -0.13900E-02   -0.13903E-02  2640   0.127E-01-0.205E-03
CGA:  44    -0.112871651836E+04   -0.13444E-02   -0.13455E-02  2640   0.937E-02-0.322E-03
CGA:  45    -0.112871717527E+04   -0.65692E-03   -0.65395E-03  2640   0.500E-02-0.135E-04
CGA:  46    -0.112871763686E+04   -0.46159E-03   -0.46133E-03  2640   0.373E-02-0.264E-05
CGA:  47    -0.112871805561E+04   -0.41875E-03   -0.41893E-03  2640   0.227E-02-0.401E-05
CGA:  48    -0.112871833179E+04   -0.27618E-03   -0.27571E-03  2640   0.140E-02 0.264E-04
CGA:  49    -0.112871850880E+04   -0.17700E-03   -0.17529E-03  2640   0.196E-02 0.693E-04
CGA:  50    -0.112871881958E+04   -0.31078E-03   -0.31894E-03  2640   0.793E-02-0.760E-03
CGA:  51    -0.112871882203E+04   -0.24540E-05   -0.12743E-05  2640   0.804E-02 0.469E-02
CGA:  52    -0.112871915168E+04   -0.32964E-03   -0.32968E-03  2640   0.184E-02-0.187E-04
CGA:  53    -0.112871933214E+04   -0.18047E-03   -0.18047E-03  2640   0.213E-02-0.821E-05
CGA:  54    -0.112871965894E+04   -0.32680E-03   -0.37620E-03  2640   0.673E-02-0.663E-03
CGA:  55    -0.112871982010E+04   -0.16116E-03   -0.98918E-04  2640   0.764E-02 0.265E-02
CGA:  56    -0.112872027360E+04   -0.45351E-03   -0.33230E-03  2640   0.621E-02 0.351E-02
CGA:  57    -0.112872082483E+04   -0.55122E-03   -0.48919E-03  2640   0.122E-01 0.821E-03
CGA:  58    -0.112872111152E+04   -0.28669E-03   -0.17644E-03  2640   0.155E-01 0.809E-02
CGA:  59    -0.112872203223E+04   -0.92071E-03   -0.92073E-03  2640   0.414E-02 0.331E-05
CGA:  60    -0.112872250451E+04   -0.47228E-03   -0.47182E-03  2640   0.729E-02 0.182E-04
CGA:  61    -0.112872367989E+04   -0.11754E-02   -0.12068E-02  2640   0.198E-01-0.408E-03
CGA:  62    -0.112872663667E+04   -0.29568E-02   -0.30319E-02  2640   0.483E-01-0.153E-02
CGA:  63    -0.112873152538E+04   -0.48887E-02   -0.54299E-02  2640   0.141E+00-0.147E-01
CGA:  64    -0.112873359276E+04   -0.20674E-02   -0.16625E-02  2640   0.143E+00 0.221E-01
CGA:  65    -0.112873756419E+04   -0.39714E-02   -0.33041E-02  2640   0.116E+00 0.292E-01
CGA:  66    -0.112874090772E+04   -0.33435E-02   -0.29911E-02  2640   0.120E+00 0.132E-01
CGA:  67    -0.112874362021E+04   -0.27125E-02   -0.25062E-02  2640   0.135E+00 0.797E-02
CGA:  68    -0.112874587431E+04   -0.22541E-02   -0.22497E-02  2640   0.140E+00-0.161E-02
CGA:  69    -0.112874765373E+04   -0.17794E-02   -0.19776E-02  2640   0.143E+00-0.124E-01
CGA:  70    -0.112874930556E+04   -0.16518E-02   -0.18582E-02  2640   0.151E+00-0.108E-01
CGA:  71    -0.112875138676E+04   -0.20812E-02   -0.20947E-02  2640   0.156E+00 0.129E-02
CGA:  72    -0.112875394420E+04   -0.25574E-02   -0.23739E-02  2640   0.142E+00 0.110E-01
CGA:  73    -0.112875636316E+04   -0.24190E-02   -0.22627E-02  2640   0.117E+00 0.879E-02
CGA:  74    -0.112875827345E+04   -0.19103E-02   -0.18558E-02  2640   0.946E-01 0.259E-02
CGA:  75    -0.112875974235E+04   -0.14689E-02   -0.14559E-02  2640   0.784E-01 0.161E-03
CGA:  76    -0.112876095392E+04   -0.12116E-02   -0.12067E-02  2640   0.685E-01-0.299E-03
CGA:  77    -0.112876206671E+04   -0.11128E-02   -0.11066E-02  2640   0.675E-01-0.247E-03
CGA:  78    -0.112876322595E+04   -0.11592E-02   -0.11504E-02  2640   0.737E-01-0.196E-03
CGA:  79    -0.112876447463E+04   -0.12487E-02   -0.12402E-02  2640   0.784E-01-0.289E-03
CGA:  80    -0.112876570490E+04   -0.12303E-02   -0.12277E-02  2640   0.748E-01-0.583E-03
CGA:  81    -0.112876681302E+04   -0.11081E-02   -0.11156E-02  2640   0.677E-01-0.103E-02
CGA:  82    -0.112876781224E+04   -0.99922E-03   -0.10190E-02  2640   0.622E-01-0.150E-02
CGA:  83    -0.112876874844E+04   -0.93620E-03   -0.96827E-03  2640   0.568E-01-0.186E-02
CGA:  84    -0.112876962502E+04   -0.87658E-03   -0.91348E-03  2640   0.496E-01-0.181E-02
CGA:  85    -0.112877045684E+04   -0.83182E-03   -0.86220E-03  2640   0.451E-01-0.121E-02
CGA:  86    -0.112877135371E+04   -0.89688E-03   -0.91756E-03  2640   0.475E-01-0.540E-03
CGA:  87    -0.112877244713E+04   -0.10934E-02   -0.11038E-02  2640   0.529E-01-0.129E-03
CGA:  88    -0.112877365717E+04   -0.12100E-02   -0.12111E-02  2640   0.523E-01 0.417E-04
SDA:  89    -0.112877477247E+04   -0.11153E-02   -0.11153E-02  2640   0.456E-01 0.968E-04
CGA:  90    -0.112877999041E+04   -0.52179E-02   -0.51909E-02  2640   0.372E-01 0.388E-03
CGA:  91    -0.112878380793E+04   -0.38175E-02   -0.38148E-02  2640   0.390E-01 0.254E-04
CGA:  92    -0.112878837822E+04   -0.45703E-02   -0.45222E-02  2640   0.380E-01 0.703E-03
CGA:  93    -0.112879140218E+04   -0.30240E-02   -0.30101E-02  2640   0.180E-01 0.458E-03
CGA:  94    -0.112879280854E+04   -0.14064E-02   -0.14060E-02  2640   0.769E-02 0.307E-04
CGA:  95    -0.112879407056E+04   -0.12620E-02   -0.12565E-02  2640   0.942E-02 0.514E-04
CGA:  96    -0.112879531403E+04   -0.12435E-02   -0.12485E-02  2640   0.860E-02-0.709E-04
CGA:  97    -0.112879618160E+04   -0.86757E-03   -0.87070E-03  2640   0.308E-02-0.751E-04
CGA:  98    -0.112879675232E+04   -0.57072E-03   -0.57997E-03  2640   0.483E-02-0.741E-04
CGA:  99    -0.112879700926E+04   -0.25695E-03   -0.25649E-03  2640   0.173E-02-0.272E-04
CGA: 100    -0.112879718197E+04   -0.17271E-03   -0.17314E-03  2640   0.893E-03-0.135E-04
   1 F= -.11287972E+04 E0= -.11287747E+04  d E =-.112880E+04  mag=    20.0000
       N       E                     dE             d eps       ncg     rms          ort
SDA:   1    -0.112717767844E+04    0.16193E+01    0.00000E+00  2640   0.698E+01 0.000E+00
CGA:   2    -0.112802768454E+04   -0.85001E+00   -0.85274E+00  2640   0.424E+01-0.509E-01
CGA:   3    -0.112830088598E+04   -0.27320E+00   -0.27507E+00  2640   0.259E+01 0.486E-01
CGA:   4    -0.112858006653E+04   -0.27918E+00   -0.28036E+00  2640   0.227E+01-0.321E-01
CGA:   5    -0.112874121469E+04   -0.16115E+00   -0.16105E+00  2640   0.491E+00-0.600E-02
CGA:   6    -0.112877175434E+04   -0.30540E-01   -0.30726E-01  2640   0.198E+00 0.331E-02
CGA:   7    -0.112879483625E+04   -0.23082E-01   -0.23089E-01  2640   0.767E-01-0.519E-04
CGA:   8    -0.112880053890E+04   -0.57026E-02   -0.57040E-02  2640   0.366E-01 0.205E-03
CGA:   9    -0.112880330205E+04   -0.27632E-02   -0.27635E-02  2640   0.243E-01 0.130E-03
CGA:  10    -0.112880547561E+04   -0.21736E-02   -0.21741E-02  2640   0.114E-01-0.270E-04
CGA:  11    -0.112880637596E+04   -0.90035E-03   -0.90037E-03  2640   0.518E-02 0.228E-04
CGA:  12    -0.112880703809E+04   -0.66212E-03   -0.66209E-03  2640   0.471E-02 0.882E-06
CGA:  13    -0.112880746611E+04   -0.42803E-03   -0.42798E-03  2640   0.275E-02 0.300E-05
CGA:  14    -0.112880764897E+04   -0.18286E-03   -0.18277E-03  2640   0.157E-02-0.323E-05
CGA:  15    -0.112880784639E+04   -0.19742E-03   -0.19771E-03  2640   0.132E-02-0.642E-05
CGA:  16    -0.112880797299E+04   -0.12660E-03   -0.12670E-03  2640   0.875E-03-0.813E-05
CGA:  17    -0.112880804996E+04   -0.76969E-04   -0.77001E-04  2640   0.480E-03-0.757E-05
CGA:  18    -0.112880810377E+04   -0.53812E-04   -0.54012E-04  2640   0.440E-03-0.695E-05
CGA:  19    -0.112880813445E+04   -0.30672E-04   -0.30624E-04  2640   0.230E-03-0.326E-05
CGA:  20    -0.112880815690E+04   -0.22450E-04   -0.22470E-04  2640   0.152E-03-0.156E-05
CGA:  21    -0.112880817407E+04   -0.17177E-04   -0.17154E-04  2640   0.107E-03 0.809E-06
CGA:  22    -0.112880818497E+04   -0.10893E-04   -0.10863E-04  2640   0.774E-04 0.220E-05
CGA:  23    -0.112880819271E+04   -0.77450E-05   -0.77242E-05  2640   0.748E-04 0.205E-05
   2 F= -.11288082E+04 E0= -.11287857E+04  d E =-.110107E-01  mag=    20.0000
       N       E                     dE             d eps       ncg     rms          ort
SDA:   1    -0.112864104624E+04    0.16714E+00    0.00000E+00  2640   0.735E+00 0.000E+00
CGA:   2    -0.112872525990E+04   -0.84214E-01   -0.84038E-01  2640   0.521E+00 0.517E-02
CGA:   3    -0.112875777722E+04   -0.32517E-01   -0.32305E-01  2640   0.232E+00 0.904E-03
CGA:   4    -0.112879044804E+04   -0.32671E-01   -0.32624E-01  2640   0.259E+00 0.830E-03
CGA:   5    -0.112880393486E+04   -0.13487E-01   -0.13585E-01  2640   0.522E-01-0.510E-03
CGA:   6    -0.112880793554E+04   -0.40007E-02   -0.39961E-02  2640   0.195E-01-0.200E-03
CGA:   7    -0.112881031303E+04   -0.23775E-02   -0.23826E-02  2640   0.678E-02-0.151E-03
CGA:   8    -0.112881081148E+04   -0.49846E-03   -0.49779E-03  2640   0.397E-02-0.312E-04
CGA:   9    -0.112881113406E+04   -0.32258E-03   -0.32256E-03  2640   0.249E-02-0.431E-05
CGA:  10    -0.112881132999E+04   -0.19593E-03   -0.19596E-03  2640   0.109E-02 0.173E-05
CGA:  11    -0.112881141582E+04   -0.85832E-04   -0.85844E-04  2640   0.584E-03 0.146E-05
CGA:  12    -0.112881148830E+04   -0.72481E-04   -0.72467E-04  2640   0.455E-03 0.304E-06
CGA:  13    -0.112881153058E+04   -0.42275E-04   -0.42274E-04  2640   0.223E-03 0.455E-06
CGA:  14    -0.112881154850E+04   -0.17924E-04   -0.17926E-04  2640   0.180E-03 0.178E-06
CGA:  15    -0.112881156643E+04   -0.17930E-04   -0.17913E-04  2640   0.144E-03 0.167E-05
CGA:  16    -0.112881157866E+04   -0.12225E-04   -0.12238E-04  2640   0.639E-04 0.234E-05
CGA:  17    -0.112881158604E+04   -0.73849E-05   -0.73334E-05  2640   0.468E-04 0.217E-05
   3 F= -.11288116E+04 E0= -.11287891E+04  d E =-.144041E-01  mag=    20.0000
       N       E                     dE             d eps       ncg     rms          ort
SDA:   1    -0.112775366845E+04    0.10579E+01    0.00000E+00  2640   0.340E+01 0.000E+00
CGA:   2    -0.112830797205E+04   -0.55430E+00   -0.55231E+00  2640   0.394E+01 0.262E-01
CGA:   3    -0.112850951601E+04   -0.20154E+00   -0.19806E+00  2640   0.150E+01 0.336E-01
CGA:   4    -0.112871928907E+04   -0.20977E+00   -0.20985E+00  2640   0.877E+00-0.138E-02
CGA:   5    -0.112877282092E+04   -0.53532E-01   -0.53700E-01  2640   0.219E+00-0.174E-03
CGA:   6    -0.112879654281E+04   -0.23722E-01   -0.23765E-01  2640   0.139E+00-0.158E-02
CGA:   7    -0.112880764705E+04   -0.11104E-01   -0.11128E-01  2640   0.455E-01 0.806E-03
CGA:   8    -0.112881079076E+04   -0.31437E-02   -0.31405E-02  2640   0.230E-01 0.456E-04
CGA:   9    -0.112881274159E+04   -0.19508E-02   -0.19509E-02  2640   0.149E-01 0.140E-04
CGA:  10    -0.112881385982E+04   -0.11182E-02   -0.11186E-02  2640   0.673E-02 0.326E-05
CGA:  11    -0.112881448922E+04   -0.62940E-03   -0.62940E-03  2640   0.360E-02 0.160E-05
CGA:  12    -0.112881494902E+04   -0.45980E-03   -0.45872E-03  2640   0.265E-02 0.288E-04
CGA:  13    -0.112881518083E+04   -0.23181E-03   -0.23192E-03  2640   0.157E-02 0.196E-04
CGA:  14    -0.112881530717E+04   -0.12634E-03   -0.12642E-03  2640   0.131E-02 0.598E-05
CGA:  15    -0.112881543907E+04   -0.13190E-03   -0.13195E-03  2640   0.890E-03-0.507E-05
CGA:  16    -0.112881553511E+04   -0.96044E-04   -0.96372E-04  2640   0.515E-03-0.198E-04
CGA:  17    -0.112881559479E+04   -0.59674E-04   -0.60345E-04  2640   0.423E-03-0.254E-04
CGA:  18    -0.112881562620E+04   -0.31409E-04   -0.31140E-04  2640   0.268E-03-0.158E-04
CGA:  19    -0.112881564831E+04   -0.22118E-04   -0.22039E-04  2640   0.162E-03-0.961E-05
CGA:  20    -0.112881566385E+04   -0.15534E-04   -0.15559E-04  2640   0.138E-03-0.379E-05
CGA:  21    -0.112881567620E+04   -0.12355E-04   -0.12354E-04  2640   0.681E-04-0.245E-06
CGA:  22    -0.112881568441E+04   -0.82040E-05   -0.81755E-05  2640   0.577E-04 0.104E-05
   4 F= -.11288157E+04 E0= -.11287929E+04  d E =-.409837E-02  mag=    20.0000
       N       E                     dE             d eps       ncg     rms          ort
SDA:   1    -0.112865314601E+04    0.16253E+00    0.00000E+00  2640   0.590E+00 0.000E+00
CGA:   2    -0.112871467212E+04   -0.61526E-01   -0.61554E-01  2640   0.847E+00-0.144E-02
CGA:   3    -0.112877046534E+04   -0.55793E-01   -0.55867E-01  2640   0.211E+00 0.135E-02
CGA:   4    -0.112880069782E+04   -0.30232E-01   -0.30239E-01  2640   0.176E+00-0.103E-03
CGA:   5    -0.112881189573E+04   -0.11198E-01   -0.11175E-01  2640   0.329E-01-0.187E-03
CGA:   6    -0.112881570525E+04   -0.38095E-02   -0.38086E-02  2640   0.219E-01-0.368E-04
CGA:   7    -0.112881737595E+04   -0.16707E-02   -0.16670E-02  2640   0.974E-02-0.125E-03
CGA:   8    -0.112881793269E+04   -0.55675E-03   -0.55613E-03  2640   0.340E-02-0.312E-04
CGA:   9    -0.112881827402E+04   -0.34133E-03   -0.34132E-03  2640   0.222E-02-0.209E-05
CGA:  10    -0.112881844317E+04   -0.16914E-03   -0.16918E-03  2640   0.109E-02 0.340E-05
CGA:  11    -0.112881855211E+04   -0.10894E-03   -0.10894E-03  2640   0.469E-03 0.503E-06
CGA:  12    -0.112881862675E+04   -0.74646E-04   -0.75471E-04  2640   0.457E-03-0.122E-04
CGA:  13    -0.112881865390E+04   -0.27151E-04   -0.26946E-04  2640   0.234E-03-0.564E-05
CGA:  14    -0.112881867605E+04   -0.22150E-04   -0.22152E-04  2640   0.170E-03-0.283E-05
CGA:  15    -0.112881869630E+04   -0.20248E-04   -0.20190E-04  2640   0.120E-03 0.233E-05
CGA:  16    -0.112881870747E+04   -0.11168E-04   -0.11194E-04  2640   0.589E-04 0.621E-05
CGA:  17    -0.112881871522E+04   -0.77497E-05   -0.75260E-05  2640   0.316E-04 0.876E-05
   5 F= -.11288187E+04 E0= -.11287961E+04  d E =-.712918E-02  mag=    20.0000
       N       E                     dE             d eps       ncg     rms          ort
SDA:   1    -0.112849046435E+04    0.32824E+00    0.00000E+00  2640   0.114E+01 0.000E+00
CGA:   2    -0.112864068587E+04   -0.15022E+00   -0.14983E+00  2640   0.123E+01 0.923E-02
CGA:   3    -0.112873114609E+04   -0.90460E-01   -0.90064E-01  2640   0.446E+00-0.145E-02
CGA:   4    -0.112879381752E+04   -0.62671E-01   -0.62482E-01  2640   0.242E+00 0.355E-02
CGA:   5    -0.112881065803E+04   -0.16841E-01   -0.16803E-01  2640   0.865E-01-0.273E-03
CGA:   6    -0.112881600664E+04   -0.53486E-02   -0.53365E-02  2640   0.456E-01-0.163E-03
CGA:   7    -0.112882022557E+04   -0.42189E-02   -0.42189E-02  2640   0.214E-01-0.121E-03
CGA:   8    -0.112882172010E+04   -0.14945E-02   -0.14916E-02  2640   0.642E-02-0.605E-04
CGA:   9    -0.112882238941E+04   -0.66931E-03   -0.66904E-03  2640   0.331E-02 0.245E-04
CGA:  10    -0.112882280579E+04   -0.41638E-03   -0.41531E-03  2640   0.162E-02 0.361E-04
CGA:  11    -0.112882294052E+04   -0.13473E-03   -0.13490E-03  2640   0.107E-02 0.106E-04
CGA:  12    -0.112882306984E+04   -0.12932E-03   -0.12921E-03  2640   0.672E-03 0.490E-05
CGA:  13    -0.112882313253E+04   -0.62690E-04   -0.62694E-04  2640   0.478E-03 0.599E-06
CGA:  14    -0.112882316676E+04   -0.34227E-04   -0.34280E-04  2640   0.331E-03 0.191E-05
CGA:  15    -0.112882320366E+04   -0.36902E-04   -0.36818E-04  2640   0.239E-03 0.569E-05
CGA:  16    -0.112882322982E+04   -0.26156E-04   -0.26081E-04  2640   0.128E-03 0.691E-05
CGA:  17    -0.112882324471E+04   -0.14892E-04   -0.14820E-04  2640   0.867E-04 0.464E-05
CGA:  18    -0.112882325461E+04   -0.99029E-05   -0.98769E-05  2640   0.542E-04 0.208E-05
   6 F= -.11288233E+04 E0= -.11288006E+04  d E =-.453939E-02  mag=    20.0000
       N       E                     dE             d eps       ncg     rms          ort
SDA:   1    -0.112882121185E+04    0.20329E-02    0.00000E+00  2640   0.205E-01 0.000E+00
CGA:   2    -0.112882210053E+04   -0.88868E-03   -0.88483E-03  2640   0.422E-02 0.119E-03
CGA:   3    -0.112882264062E+04   -0.54009E-03   -0.53715E-03  2640   0.465E-02 0.948E-04
CGA:   4    -0.112882296904E+04   -0.32842E-03   -0.33000E-03  2640   0.212E-02 0.531E-04
CGA:   5    -0.112882313333E+04   -0.16429E-03   -0.16439E-03  2640   0.111E-02 0.569E-05
CGA:   6    -0.112882323645E+04   -0.10312E-03   -0.10308E-03  2640   0.374E-03-0.205E-04
CGA:   7    -0.112882326573E+04   -0.29273E-04   -0.29069E-04  2640   0.135E-03-0.129E-04
CGA:   8    -0.112882327965E+04   -0.13918E-04   -0.14040E-04  2640   0.115E-03-0.868E-05
CGA:   9    -0.112882328615E+04   -0.65018E-05   -0.64015E-05  2640   0.413E-04-0.286E-05
   7 F= -.11288233E+04 E0= -.11288006E+04  d E =-.457093E-02  mag=    20.0000
       N       E                     dE             d eps       ncg     rms          ort
SDA:   1    -0.112853569702E+04    0.28758E+00    0.00000E+00  2640   0.101E+01 0.000E+00
CGA:   2    -0.112867571349E+04   -0.14002E+00   -0.13961E+00  2640   0.100E+01 0.751E-02
CGA:   3    -0.112873776299E+04   -0.62050E-01   -0.61242E-01  2640   0.448E+00 0.167E-02
CGA:   4    -0.112879142909E+04   -0.53666E-01   -0.53721E-01  2640   0.412E+00-0.147E-02
CGA:   5    -0.112881278050E+04   -0.21351E-01   -0.21540E-01  2640   0.701E-01-0.139E-02
CGA:   6    -0.112881952597E+04   -0.67455E-02   -0.67484E-02  2640   0.339E-01-0.382E-03
CGA:   7    -0.112882310157E+04   -0.35756E-02   -0.35747E-02  2640   0.160E-01 0.191E-04
CGA:   8    -0.112882419141E+04   -0.10898E-02   -0.10891E-02  2640   0.687E-02-0.736E-05
CGA:   9    -0.112882471984E+04   -0.52843E-03   -0.52869E-03  2640   0.437E-02 0.151E-04
CGA:  10    -0.112882508189E+04   -0.36205E-03   -0.36221E-03  2640   0.209E-02 0.156E-04
CGA:  11    -0.112882526427E+04   -0.18238E-03   -0.18241E-03  2640   0.971E-03 0.808E-05
CGA:  12    -0.112882539900E+04   -0.13473E-03   -0.13441E-03  2640   0.791E-03 0.657E-05
CGA:  13    -0.112882546010E+04   -0.61101E-04   -0.61137E-04  2640   0.507E-03 0.314E-05
CGA:  14    -0.112882550622E+04   -0.46116E-04   -0.46119E-04  2640   0.344E-03 0.228E-05
CGA:  15    -0.112882553675E+04   -0.30532E-04   -0.30544E-04  2640   0.259E-03 0.325E-05
CGA:  16    -0.112882556319E+04   -0.26441E-04   -0.26401E-04  2640   0.165E-03 0.429E-05
CGA:  17    -0.112882558365E+04   -0.20458E-04   -0.20380E-04  2640   0.876E-04 0.260E-05
CGA:  18    -0.112882559265E+04   -0.90018E-05   -0.89988E-05  2640   0.842E-04 0.402E-06
   8 F= -.11288256E+04 E0= -.11288030E+04  d E =-.230651E-02  mag=    20.0000
       N       E                     dE             d eps       ncg     rms          ort
SDA:   1    -0.112881133090E+04    0.14253E-01    0.00000E+00  2640   0.920E-01 0.000E+00
CGA:   2    -0.112881574923E+04   -0.44183E-02   -0.43888E-02  2640   0.450E-01 0.258E-03
CGA:   3    -0.112882106719E+04   -0.53180E-02   -0.53213E-02  2640   0.270E-01-0.114E-03
CGA:   4    -0.112882330924E+04   -0.22420E-02   -0.22422E-02  2640   0.164E-01-0.760E-05
CGA:   5    -0.112882494647E+04   -0.16372E-02   -0.16372E-02  2640   0.713E-02 0.489E-05
CGA:   6    -0.112882541437E+04   -0.46789E-03   -0.46869E-03  2640   0.157E-02 0.145E-04
CGA:   7    -0.112882558102E+04   -0.16665E-03   -0.16648E-03  2640   0.128E-02 0.114E-04
CGA:   8    -0.112882566562E+04   -0.84599E-04   -0.84776E-04  2640   0.511E-03 0.689E-05
CGA:   9    -0.112882570347E+04   -0.37858E-04   -0.37876E-04  2640   0.214E-03 0.950E-06
CGA:  10    -0.112882572101E+04   -0.17537E-04   -0.17524E-04  2640   0.104E-03-0.147E-05
CGA:  11    -0.112882573398E+04   -0.12971E-04   -0.13074E-04  2640   0.526E-04-0.279E-05
CGA:  12    -0.112882573821E+04   -0.42239E-05   -0.42176E-05  2640   0.363E-04-0.727E-06
   9 F= -.11288257E+04 E0= -.11288032E+04  d E =-.245206E-02  mag=    20.0000
       N       E                     dE             d eps       ncg     rms          ort
SDA:   1    -0.112865412426E+04    0.17161E+00    0.00000E+00  2640   0.635E+00 0.000E+00
CGA:   2    -0.112873216921E+04   -0.78045E-01   -0.77862E-01  2640   0.731E+00 0.414E-02
CGA:   3    -0.112877327828E+04   -0.41109E-01   -0.40947E-01  2640   0.259E+00 0.283E-03
CGA:   4    -0.112880552780E+04   -0.32250E-01   -0.32255E-01  2640   0.215E+00-0.162E-03
CGA:   5    -0.112882051923E+04   -0.14991E-01   -0.15010E-01  2640   0.400E-01 0.187E-03
CGA:   6    -0.112882405026E+04   -0.35310E-02   -0.35303E-02  2640   0.226E-01-0.889E-04
CGA:   7    -0.112882631376E+04   -0.22635E-02   -0.22618E-02  2640   0.106E-01 0.156E-03
CGA:   8    -0.112882693889E+04   -0.62513E-03   -0.62521E-03  2640   0.414E-02 0.313E-04
CGA:   9    -0.112882729351E+04   -0.35463E-03   -0.35464E-03  2640   0.246E-02 0.435E-05
CGA:  10    -0.112882749441E+04   -0.20090E-03   -0.20088E-03  2640   0.133E-02-0.430E-05
CGA:  11    -0.112882761207E+04   -0.11766E-03   -0.11766E-03  2640   0.555E-03-0.459E-05
CGA:  12    -0.112882768824E+04   -0.76171E-04   -0.76126E-04  2640   0.487E-03 0.856E-06
CGA:  13    -0.112882772733E+04   -0.39087E-04   -0.39118E-04  2640   0.338E-03 0.273E-05
CGA:  14    -0.112882775194E+04   -0.24610E-04   -0.24642E-04  2640   0.172E-03 0.172E-05
CGA:  15    -0.112882777439E+04   -0.22453E-04   -0.22442E-04  2640   0.150E-03 0.222E-06
CGA:  16    -0.112882779130E+04   -0.16903E-04   -0.16933E-04  2640   0.102E-03-0.148E-05
CGA:  17    -0.112882780041E+04   -0.91133E-05   -0.91105E-05  2640   0.683E-04-0.115E-05
  10 F= -.11288278E+04 E0= -.11288053E+04  d E =-.206220E-02  mag=    20.0000
       N       E                     dE             d eps       ncg     rms          ort
SDA:   1    -0.112882428854E+04    0.35028E-02    0.00000E+00  2640   0.576E-01 0.000E+00
CGA:   2    -0.112882612718E+04   -0.18386E-02   -0.18418E-02  2640   0.628E-02-0.134E-03
CGA:   3    -0.112882694093E+04   -0.81375E-03   -0.81750E-03  2640   0.588E-02-0.895E-04
CGA:   4    -0.112882742682E+04   -0.48589E-03   -0.48540E-03  2640   0.244E-02-0.602E-04
CGA:   5    -0.112882770810E+04   -0.28128E-03   -0.28141E-03  2640   0.140E-02-0.522E-05
CGA:   6    -0.112882780924E+04   -0.10114E-03   -0.10134E-03  2640   0.498E-03 0.108E-04
CGA:   7    -0.112882783772E+04   -0.28480E-04   -0.28752E-04  2640   0.196E-03 0.795E-05
CGA:   8    -0.112882785677E+04   -0.19051E-04   -0.19004E-04  2640   0.112E-03 0.828E-05
CGA:   9    -0.112882786591E+04   -0.91474E-05   -0.91927E-05  2640   0.444E-04 0.398E-05
  11 F= -.11288279E+04 E0= -.11288053E+04  d E =-.212771E-02  mag=    20.0000
       N       E                     dE             d eps       ncg     rms          ort
SDA:   1    -0.112868458590E+04    0.14327E+00    0.00000E+00  2640   0.536E+00 0.000E+00
CGA:   2    -0.112875211044E+04   -0.67525E-01   -0.67367E-01  2640   0.542E+00 0.332E-02
CGA:   3    -0.112878440945E+04   -0.32299E-01   -0.32018E-01  2640   0.213E+00 0.268E-03
CGA:   4    -0.112880948061E+04   -0.25071E-01   -0.25094E-01  2640   0.226E+00-0.633E-03
CGA:   5    -0.112882329016E+04   -0.13810E-01   -0.13836E-01  2640   0.291E-01-0.851E-05
CGA:   6    -0.112882638205E+04   -0.30919E-02   -0.30918E-02  2640   0.206E-01 0.392E-04
CGA:   7    -0.112882802362E+04   -0.16416E-02   -0.16432E-02  2640   0.746E-02 0.103E-03
CGA:   8    -0.112882866278E+04   -0.63915E-03   -0.63922E-03  2640   0.297E-02 0.190E-04
CGA:   9    -0.112882888292E+04   -0.22015E-03   -0.22016E-03  2640   0.220E-02 0.708E-06
CGA:  10    -0.112882906143E+04   -0.17851E-03   -0.17847E-03  2640   0.921E-03-0.626E-05
CGA:  11    -0.112882914711E+04   -0.85674E-04   -0.85701E-04  2640   0.465E-03-0.547E-05
CGA:  12    -0.112882921206E+04   -0.64950E-04   -0.65014E-04  2640   0.396E-03-0.127E-05
CGA:  13    -0.112882924443E+04   -0.32374E-04   -0.32384E-04  2640   0.234E-03 0.113E-05
CGA:  14    -0.112882926472E+04   -0.20289E-04   -0.20290E-04  2640   0.181E-03 0.262E-06
CGA:  15    -0.112882928117E+04   -0.16447E-04   -0.16447E-04  2640   0.140E-03-0.207E-06
CGA:  16    -0.112882929748E+04   -0.16310E-04   -0.16319E-04  2640   0.858E-04-0.351E-06
CGA:  17    -0.112882930450E+04   -0.70271E-05   -0.70295E-05  2640   0.514E-04 0.217E-06
  12 F= -.11288293E+04 E0= -.11288068E+04  d E =-.143859E-02  mag=    20.0000
       N       E                     dE             d eps       ncg     rms          ort
SDA:   1    -0.112882825796E+04    0.10395E-02    0.00000E+00  2640   0.276E-01 0.000E+00
CGA:   2    -0.112882909366E+04   -0.83570E-03   -0.83200E-03  2640   0.129E-02 0.770E-04
CGA:   3    -0.112882918710E+04   -0.93436E-04   -0.93237E-04  2640   0.575E-03-0.111E-04
CGA:   4    -0.112882926002E+04   -0.72925E-04   -0.73745E-04  2640   0.459E-03-0.204E-04
CGA:   5    -0.112882929844E+04   -0.38416E-04   -0.38375E-04  2640   0.194E-03-0.865E-05
CGA:   6    -0.112882931753E+04   -0.19095E-04   -0.19087E-04  2640   0.893E-04 0.884E-06
CGA:   7    -0.112882932450E+04   -0.69676E-05   -0.70064E-05  2640   0.291E-04 0.294E-05
  13 F= -.11288293E+04 E0= -.11288068E+04  d E =-.145858E-02  mag=    20.0000
       N       E                     dE             d eps       ncg     rms          ort
SDA:   1    -0.112870498696E+04    0.12433E+00    0.00000E+00  2640   0.398E+00 0.000E+00
CGA:   2    -0.112877902136E+04   -0.74034E-01   -0.74069E-01  2640   0.260E+00-0.341E-03
CGA:   3    -0.112879829921E+04   -0.19278E-01   -0.19265E-01  2640   0.249E+00-0.166E-03
CGA:   4    -0.112882054941E+04   -0.22250E-01   -0.22250E-01  2640   0.782E-01 0.120E-04
CGA:   5    -0.112882587612E+04   -0.53267E-02   -0.53435E-02  2640   0.230E-01 0.103E-03
CGA:   6    -0.112882846383E+04   -0.25877E-02   -0.25877E-02  2640   0.173E-01 0.136E-04
CGA:   7    -0.112882959174E+04   -0.11279E-02   -0.11293E-02  2640   0.428E-02 0.124E-04
CGA:   8    -0.112882994952E+04   -0.35778E-03   -0.35772E-03  2640   0.276E-02-0.548E-05
CGA:   9    -0.112883015192E+04   -0.20240E-03   -0.20220E-03  2640   0.158E-02-0.809E-05
CGA:  10    -0.112883029011E+04   -0.13819E-03   -0.13816E-03  2640   0.507E-03-0.683E-05
CGA:  11    -0.112883035839E+04   -0.68281E-04   -0.68449E-04  2640   0.521E-03-0.372E-05
CGA:  12    -0.112883040378E+04   -0.45395E-04   -0.45395E-04  2640   0.288E-03-0.268E-06
CGA:  13    -0.112883042442E+04   -0.20641E-04   -0.20659E-04  2640   0.189E-03 0.873E-06
CGA:  14    -0.112883044499E+04   -0.20569E-04   -0.20536E-04  2640   0.144E-03 0.196E-05
CGA:  15    -0.112883046245E+04   -0.17458E-04   -0.17411E-04  2640   0.975E-04 0.166E-05
CGA:  16    -0.112883047180E+04   -0.93470E-05   -0.93454E-05  2640   0.693E-04 0.154E-05
  14 F= -.11288305E+04 E0= -.11288080E+04  d E =-.114730E-02  mag=    20.0000
       N       E                     dE             d eps       ncg     rms          ort
SDA:   1    -0.112882446132E+04    0.60011E-02    0.00000E+00  2640   0.615E-01 0.000E+00
CGA:   2    -0.112882670608E+04   -0.22448E-02   -0.22509E-02  2640   0.145E-01-0.133E-03
CGA:   3    -0.112882873049E+04   -0.20244E-02   -0.20269E-02  2640   0.118E-01-0.497E-04
CGA:   4    -0.112882970504E+04   -0.97455E-03   -0.97429E-03  2640   0.476E-02-0.265E-04
CGA:   5    -0.112883028583E+04   -0.58080E-03   -0.58095E-03  2640   0.270E-02-0.551E-05
CGA:   6    -0.112883045901E+04   -0.17318E-03   -0.17324E-03  2640   0.789E-03 0.346E-05
CGA:   7    -0.112883051560E+04   -0.56583E-04   -0.56658E-04  2640   0.515E-03 0.365E-05
CGA:   8    -0.112883055677E+04   -0.41170E-04   -0.41196E-04  2640   0.186E-03 0.230E-05
CGA:   9    -0.112883057487E+04   -0.18102E-04   -0.18100E-04  2640   0.770E-04 0.418E-06
CGA:  10    -0.112883058165E+04   -0.67829E-05   -0.67795E-05  2640   0.544E-04-0.939E-06
  15 F= -.11288306E+04 E0= -.11288081E+04  d E =-.125715E-02  mag=    20.0000
       N       E                     dE             d eps       ncg     rms          ort
SDA:   1    -0.112881105807E+04    0.19517E-01    0.00000E+00  2640   0.903E-01 0.000E+00
CGA:   2    -0.112881696613E+04   -0.59081E-02   -0.58939E-02  2640   0.792E-01-0.738E-04
CGA:   3    -0.112882472246E+04   -0.77563E-02   -0.77571E-02  2640   0.320E-01-0.102E-03
CGA:   4    -0.112882758788E+04   -0.28654E-02   -0.28654E-02  2640   0.215E-01-0.114E-04
CGA:   5    -0.112882979377E+04   -0.22059E-02   -0.22064E-02  2640   0.615E-02-0.286E-04
CGA:   6    -0.112883021370E+04   -0.41993E-03   -0.42049E-03  2640   0.246E-02 0.104E-04
CGA:   7    -0.112883048266E+04   -0.26896E-03   -0.26882E-03  2640   0.185E-02 0.807E-05
CGA:   8    -0.112883058872E+04   -0.10606E-03   -0.10616E-03  2640   0.473E-03 0.205E-05
CGA:   9    -0.112883062531E+04   -0.36589E-04   -0.36564E-04  2640   0.292E-03-0.222E-05
CGA:  10    -0.112883065503E+04   -0.29716E-04   -0.29762E-04  2640   0.172E-03-0.342E-05
CGA:  11    -0.112883067020E+04   -0.15175E-04   -0.15174E-04  2640   0.729E-04-0.232E-05
CGA:  12    -0.112883067984E+04   -0.96389E-05   -0.96576E-05  2640   0.852E-04-0.398E-06
  16 F= -.11288307E+04 E0= -.11288082E+04  d E =-.135534E-02  mag=    20.0000
       N       E                     dE             d eps       ncg     rms          ort
SDA:   1    -0.112874739467E+04    0.83276E-01    0.00000E+00  2640   0.303E+00 0.000E+00
CGA:   2    -0.112877845274E+04   -0.31058E-01   -0.31064E-01  2640   0.430E+00-0.362E-03
CGA:   3    -0.112880704669E+04   -0.28594E-01   -0.28595E-01  2640   0.106E+00-0.159E-03
CGA:   4    -0.112882346194E+04   -0.16415E-01   -0.16411E-01  2640   0.681E-01 0.539E-04
CGA:   5    -0.112882847116E+04   -0.50092E-02   -0.50057E-02  2640   0.154E-01-0.150E-04
CGA:   6    -0.112883002777E+04   -0.15566E-02   -0.15561E-02  2640   0.126E-01 0.567E-04
CGA:   7    -0.112883090886E+04   -0.88109E-03   -0.88148E-03  2640   0.455E-02 0.274E-04
CGA:   8    -0.112883118180E+04   -0.27294E-03   -0.27310E-03  2640   0.163E-02 0.468E-05
CGA:   9    -0.112883135661E+04   -0.17482E-03   -0.17488E-03  2640   0.970E-03-0.412E-05
CGA:  10    -0.112883145781E+04   -0.10120E-03   -0.10128E-03  2640   0.403E-03-0.598E-05
CGA:  11    -0.112883149666E+04   -0.38854E-04   -0.38858E-04  2640   0.415E-03-0.918E-06
CGA:  12    -0.112883153050E+04   -0.33831E-04   -0.33836E-04  2640   0.232E-03 0.600E-06
CGA:  13    -0.112883155258E+04   -0.22088E-04   -0.22083E-04  2640   0.145E-03 0.140E-05
CGA:  14    -0.112883156543E+04   -0.12846E-04   -0.12846E-04  2640   0.110E-03-0.167E-07
CGA:  15    -0.112883158069E+04   -0.15262E-04   -0.15266E-04  2640   0.854E-04-0.725E-07
CGA:  16    -0.112883158879E+04   -0.80938E-05   -0.80934E-05  2640   0.501E-04 0.751E-06
  17 F= -.11288316E+04 E0= -.11288092E+04  d E =-.908943E-03  mag=    20.0000
       N       E                     dE             d eps       ncg     rms          ort
SDA:   1    -0.112882180842E+04    0.97723E-02    0.00000E+00  2640   0.651E-01 0.000E+00
CGA:   2    -0.112882472191E+04   -0.29135E-02   -0.29273E-02  2640   0.303E-01-0.191E-03
CGA:   3    -0.112882882778E+04   -0.41059E-02   -0.41102E-02  2640   0.165E-01-0.969E-04
CGA:   4    -0.112883026158E+04   -0.14338E-02   -0.14335E-02  2640   0.964E-02-0.367E-04
CGA:   5    -0.112883123698E+04   -0.97539E-03   -0.97528E-03  2640   0.485E-02 0.841E-05
CGA:   6    -0.112883152599E+04   -0.28901E-03   -0.28895E-03  2640   0.105E-02 0.120E-04
CGA:   7    -0.112883163809E+04   -0.11210E-03   -0.11197E-03  2640   0.107E-02 0.953E-05
CGA:   8    -0.112883170140E+04   -0.63310E-04   -0.63528E-04  2640   0.236E-03 0.589E-05
CGA:   9    -0.112883172574E+04   -0.24334E-04   -0.24329E-04  2640   0.111E-03 0.424E-06
CGA:  10    -0.112883173813E+04   -0.12399E-04   -0.12432E-04  2640   0.849E-04-0.159E-05
CGA:  11    -0.112883174508E+04   -0.69462E-05   -0.69345E-05  2640   0.604E-04-0.123E-05
  18 F= -.11288317E+04 E0= -.11288093E+04  d E =-.106524E-02  mag=    20.0000
       N       E                     dE             d eps       ncg     rms          ort
SDA:   1    -0.112879649172E+04    0.35246E-01    0.00000E+00  2640   0.117E+00 0.000E+00
CGA:   2    -0.112881259628E+04   -0.16105E-01   -0.16132E-01  2640   0.166E+00-0.508E-03
CGA:   3    -0.112882164429E+04   -0.90480E-02   -0.90638E-02  2640   0.484E-01-0.205E-03
CGA:   4    -0.112882771837E+04   -0.60741E-02   -0.60769E-02  2640   0.398E-01-0.705E-04
CGA:   5    -0.112883043536E+04   -0.27170E-02   -0.27166E-02  2640   0.682E-02 0.101E-04
CGA:   6    -0.112883114802E+04   -0.71266E-03   -0.71221E-03  2640   0.576E-02 0.323E-04
CGA:   7    -0.112883157922E+04   -0.43120E-03   -0.43145E-03  2640   0.161E-02 0.191E-04
CGA:   8    -0.112883169423E+04   -0.11500E-03   -0.11504E-03  2640   0.918E-03 0.252E-05
CGA:   9    -0.112883176361E+04   -0.69384E-04   -0.69357E-04  2640   0.456E-03-0.208E-05
CGA:  10    -0.112883180861E+04   -0.44997E-04   -0.45024E-04  2640   0.247E-03-0.290E-05
CGA:  11    -0.112883183277E+04   -0.24158E-04   -0.24174E-04  2640   0.125E-03-0.178E-05
CGA:  12    -0.112883184797E+04   -0.15207E-04   -0.15192E-04  2640   0.147E-03 0.500E-06
CGA:  13    -0.112883185864E+04   -0.10667E-04   -0.10677E-04  2640   0.664E-04 0.541E-06
CGA:  14    -0.112883186458E+04   -0.59407E-05   -0.59409E-05  2640   0.547E-04 0.103E-06
  19 F= -.11288319E+04 E0= -.11288095E+04  d E =-.118474E-02  mag=    20.0000
       N       E                     dE             d eps       ncg     rms          ort
SDA:   1    -0.112874665396E+04    0.85205E-01    0.00000E+00  2640   0.273E+00 0.000E+00
CGA:   2    -0.112878545206E+04   -0.38798E-01   -0.38883E-01  2640   0.398E+00-0.146E-02
CGA:   3    -0.112880866611E+04   -0.23214E-01   -0.23338E-01  2640   0.128E+00-0.410E-03
CGA:   4    -0.112882129699E+04   -0.12631E-01   -0.12627E-01  2640   0.999E-01 0.332E-03
CGA:   5    -0.112882885803E+04   -0.75610E-02   -0.75511E-02  2640   0.227E-01-0.167E-03
CGA:   6    -0.112883072979E+04   -0.18718E-02   -0.18727E-02  2640   0.114E-01 0.374E-04
CGA:   7    -0.112883184485E+04   -0.11151E-02   -0.11151E-02  2640   0.559E-02 0.164E-05
CGA:   8    -0.112883224742E+04   -0.40257E-03   -0.40266E-03  2640   0.207E-02 0.494E-06
CGA:   9    -0.112883238587E+04   -0.13845E-03   -0.13837E-03  2640   0.116E-02-0.350E-05
CGA:  10    -0.112883250169E+04   -0.11582E-03   -0.11589E-03  2640   0.782E-03-0.715E-05
CGA:  11    -0.112883256596E+04   -0.64265E-04   -0.64235E-04  2640   0.279E-03-0.383E-05
CGA:  12    -0.112883260587E+04   -0.39913E-04   -0.39908E-04  2640   0.270E-03 0.898E-07
CGA:  13    -0.112883262937E+04   -0.23500E-04   -0.23508E-04  2640   0.172E-03 0.138E-05
CGA:  14    -0.112883264257E+04   -0.13197E-04   -0.13220E-04  2640   0.124E-03 0.144E-05
CGA:  15    -0.112883265590E+04   -0.13336E-04   -0.13303E-04  2640   0.871E-04 0.234E-05
CGA:  16    -0.112883266652E+04   -0.10613E-04   -0.10565E-04  2640   0.536E-04 0.187E-05
CGA:  17    -0.112883267270E+04   -0.61795E-05   -0.61586E-05  2640   0.422E-04 0.115E-05
  20 F= -.11288327E+04 E0= -.11288103E+04  d E =-.808117E-03  mag=    20.0000
       N       E                     dE             d eps       ncg     rms          ort
SDA:   1    -0.112882350936E+04    0.91572E-02    0.00000E+00  2640   0.455E-01 0.000E+00
CGA:   2    -0.112882605273E+04   -0.25434E-02   -0.25487E-02  2640   0.340E-01-0.284E-04
CGA:   3    -0.112883016146E+04   -0.41087E-02   -0.41099E-02  2640   0.145E-01-0.374E-04
CGA:   4    -0.112883155049E+04   -0.13890E-02   -0.13891E-02  2640   0.888E-02-0.315E-04
CGA:   5    -0.112883241577E+04   -0.86528E-03   -0.86530E-03  2640   0.320E-02-0.115E-04
CGA:   6    -0.112883262855E+04   -0.21278E-03   -0.21267E-03  2640   0.118E-02 0.385E-06
CGA:   7    -0.112883273630E+04   -0.10775E-03   -0.10775E-03  2640   0.813E-03 0.345E-05
CGA:   8    -0.112883279146E+04   -0.55169E-04   -0.55205E-04  2640   0.283E-03 0.119E-05
CGA:   9    -0.112883281064E+04   -0.19176E-04   -0.19166E-04  2640   0.120E-03-0.315E-06
CGA:  10    -0.112883282471E+04   -0.14067E-04   -0.14126E-04  2640   0.740E-04-0.215E-05
CGA:  11    -0.112883283232E+04   -0.76117E-05   -0.76289E-05  2640   0.463E-04-0.129E-05
  21 F= -.11288328E+04 E0= -.11288105E+04  d E =-.967739E-03  mag=    20.0000
       N       E                     dE             d eps       ncg     rms          ort
SDA:   1    -0.112879724981E+04    0.35575E-01    0.00000E+00  2640   0.136E+00 0.000E+00
CGA:   2    -0.112880799532E+04   -0.10746E-01   -0.10746E-01  2640   0.167E+00 0.174E-04
CGA:   3    -0.112882329939E+04   -0.15304E-01   -0.15304E-01  2640   0.437E-01-0.101E-03
CGA:   4    -0.112882913946E+04   -0.58401E-02   -0.58394E-02  2640   0.348E-01 0.336E-05
CGA:   5    -0.112883162522E+04   -0.24858E-02   -0.24845E-02  2640   0.667E-02-0.247E-04
CGA:   6    -0.112883237932E+04   -0.75410E-03   -0.75394E-03  2640   0.526E-02 0.810E-05
CGA:   7    -0.112883270760E+04   -0.32828E-03   -0.32840E-03  2640   0.214E-02 0.451E-05
CGA:   8    -0.112883285818E+04   -0.15058E-03   -0.15061E-03  2640   0.715E-03-0.121E-05
CGA:   9    -0.112883292277E+04   -0.64589E-04   -0.64587E-04  2640   0.415E-03-0.363E-05
CGA:  10    -0.112883297029E+04   -0.47518E-04   -0.47629E-04  2640   0.221E-03-0.456E-05
CGA:  11    -0.112883298954E+04   -0.19259E-04   -0.19255E-04  2640   0.155E-03-0.108E-05
CGA:  12    -0.112883300292E+04   -0.13373E-04   -0.13373E-04  2640   0.125E-03-0.816E-07
CGA:  13    -0.112883301469E+04   -0.11768E-04   -0.11765E-04  2640   0.715E-04 0.114E-05
CGA:  14    -0.112883302076E+04   -0.60718E-05   -0.60806E-05  2640   0.494E-04 0.119E-05
  22 F= -.11288330E+04 E0= -.11288107E+04  d E =-.115618E-02  mag=    20.0000
       N       E                     dE             d eps       ncg     rms          ort
SDA:   1    -0.112876910440E+04    0.63910E-01    0.00000E+00  2640   0.220E+00 0.000E+00
CGA:   2    -0.112880115885E+04   -0.32054E-01   -0.32030E-01  2640   0.230E+00 0.324E-03
CGA:   3    -0.112881618847E+04   -0.15030E-01   -0.14926E-01  2640   0.984E-01-0.307E-03
CGA:   4    -0.112882544143E+04   -0.92530E-02   -0.92530E-02  2640   0.798E-01-0.403E-04
CGA:   5    -0.112883094750E+04   -0.55061E-02   -0.55168E-02  2640   0.206E-01 0.921E-04
CGA:   6    -0.112883240756E+04   -0.14601E-02   -0.14587E-02  2640   0.851E-02 0.336E-04
CGA:   7    -0.112883337566E+04   -0.96810E-03   -0.96643E-03  2640   0.391E-02 0.715E-04
CGA:   8    -0.112883369041E+04   -0.31475E-03   -0.31490E-03  2640   0.129E-02 0.130E-04
CGA:   9    -0.112883379824E+04   -0.10784E-03   -0.10783E-03  2640   0.947E-03-0.138E-05
CGA:  10    -0.112883387470E+04   -0.76456E-04   -0.76415E-04  2640   0.589E-03-0.357E-05
CGA:  11    -0.112883392074E+04   -0.46041E-04   -0.46023E-04  2640   0.222E-03-0.146E-05
CGA:  12    -0.112883395018E+04   -0.29441E-04   -0.29308E-04  2640   0.205E-03 0.320E-05
CGA:  13    -0.112883397125E+04   -0.21064E-04   -0.21036E-04  2640   0.110E-03 0.342E-05
CGA:  14    -0.112883398260E+04   -0.11354E-04   -0.11356E-04  2640   0.916E-04-0.223E-06
CGA:  15    -0.112883399146E+04   -0.88627E-05   -0.88703E-05  2640   0.926E-04-0.225E-05
  23 F= -.11288340E+04 E0= -.11288117E+04  d E =-.970706E-03  mag=    20.0000
