       N       E                     dE             d eps       ncg     rms          ort
DAV:   1     0.730272954970E+04    0.73027E+04   -0.28916E+05  1296   0.174E+03
DAV:   2     0.616697589129E+03   -0.66860E+04   -0.64438E+04  1296   0.525E+02
DAV:   3    -0.662881578280E+03   -0.12796E+04   -0.12404E+04  1296   0.206E+02
DAV:   4    -0.740077074298E+03   -0.77195E+02   -0.75468E+02  1296   0.587E+01
DAV:   5    -0.744190254563E+03   -0.41132E+01   -0.39465E+01  1296   0.118E+01
SDA:   6     0.289767833801E+02    0.77317E+03   -0.39465E+01  1296   0.393E+04 0.000E+00
CGA:   7    -0.451922690373E+03   -0.48090E+03   -0.47838E+03  1296   0.421E+03 0.997E+02
CGA:   8    -0.492842365975E+03   -0.40920E+02   -0.44132E+02  1296   0.346E+03-0.260E+02
CGA:   9    -0.522803274275E+03   -0.29961E+02   -0.34451E+02  1296   0.214E+03-0.865E+01
CGA:  10    -0.539017032936E+03   -0.16214E+02   -0.17761E+02  1296   0.115E+03-0.373E+02
CGA:  11    -0.548290239713E+03   -0.92732E+01   -0.88412E+01  1296   0.592E+02 0.269E+01
CGA:  12    -0.552952405657E+03   -0.46622E+01   -0.41073E+01  1296   0.313E+02 0.254E+01
CGA:  13    -0.555326035366E+03   -0.23736E+01   -0.24827E+01  1296   0.268E+02-0.720E+00
CGA:  14    -0.557001392589E+03   -0.16754E+01   -0.18330E+01  1296   0.158E+02-0.153E+01
CGA:  15    -0.557805285366E+03   -0.80389E+00   -0.85839E+00  1296   0.796E+01-0.984E+00
CGA:  16    -0.558461272971E+03   -0.65599E+00   -0.67612E+00  1296   0.696E+01-0.904E-01
CGA:  17    -0.558917648694E+03   -0.45638E+00   -0.48158E+00  1296   0.481E+01-0.288E+00
CGA:  18    -0.559267110291E+03   -0.34946E+00   -0.37167E+00  1296   0.262E+01-0.816E-01
CGA:  19    -0.559477901358E+03   -0.21079E+00   -0.20325E+00  1296   0.183E+01 0.422E-01
CGA:  20    -0.559660089693E+03   -0.18219E+00   -0.18460E+00  1296   0.178E+01-0.262E-02
CGA:  21    -0.559800461708E+03   -0.14037E+00   -0.14097E+00  1296   0.102E+01-0.446E-02
CGA:  22    -0.559882395671E+03   -0.81934E-01   -0.85774E-01  1296   0.651E+00-0.596E-02
CGA:  23    -0.559951130158E+03   -0.68734E-01   -0.69596E-01  1296   0.441E+00 0.742E-02
CGA:  24    -0.559996147592E+03   -0.45017E-01   -0.44995E-01  1296   0.279E+00-0.718E-03
CGA:  25    -0.560032307807E+03   -0.36160E-01   -0.36162E-01  1296   0.179E+00 0.634E-04
CGA:  26    -0.560050212895E+03   -0.17905E-01   -0.18098E-01  1296   0.123E+00 0.105E-02
CGA:  27    -0.560066459764E+03   -0.16247E-01   -0.16248E-01  1296   0.726E-01-0.685E-03
CGA:  28    -0.560076013853E+03   -0.95541E-02   -0.95552E-02  1296   0.598E-01-0.356E-03
CGA:  29    -0.560082624844E+03   -0.66110E-02   -0.66192E-02  1296   0.383E-01 0.916E-04
CGA:  30    -0.560088180786E+03   -0.55559E-02   -0.55594E-02  1296   0.346E-01-0.149E-03
CGA:  31    -0.560092177033E+03   -0.39962E-02   -0.39915E-02  1296   0.221E-01-0.113E-03
CGA:  32    -0.560094915200E+03   -0.27382E-02   -0.27378E-02  1296   0.170E-01-0.142E-04
CGA:  33    -0.560096842446E+03   -0.19272E-02   -0.19273E-02  1296   0.105E-01 0.242E-04
CGA:  34    -0.560098244107E+03   -0.14017E-02   -0.14022E-02  1296   0.818E-02-0.508E-04
CGA:  35    -0.560099158857E+03   -0.91475E-03   -0.91406E-03  1296   0.519E-02-0.132E-04
CGA:  36    -0.560099841785E+03   -0.68293E-03   -0.68299E-03  1296   0.420E-02-0.107E-04
SDA:  37    -0.560100334731E+03   -0.49295E-03   -0.49253E-03  1296   0.329E-02-0.202E-04
CGA:  38    -0.560100633484E+03   -0.29875E-03   -0.29808E-03  1296   0.176E-02-0.778E-05
CGA:  39    -0.560100991087E+03   -0.35760E-03   -0.35972E-03  1296   0.176E-02-0.260E-04
CGA:  40    -0.560101198326E+03   -0.20724E-03   -0.20705E-03  1296   0.823E-03-0.144E-04
CGA:  41    -0.560101319853E+03   -0.12153E-03   -0.12176E-03  1296   0.889E-03-0.107E-04
CGA:  42    -0.560101465964E+03   -0.14611E-03   -0.14668E-03  1296   0.901E-03-0.145E-04
CGA:  43    -0.560101595664E+03   -0.12970E-03   -0.13003E-03  1296   0.830E-03-0.183E-04
CGA:  44    -0.560101722241E+03   -0.12658E-03   -0.12715E-03  1296   0.454E-03-0.204E-04
CGA:  45    -0.560101816052E+03   -0.93812E-04   -0.94673E-04  1296   0.373E-03-0.101E-04
CGA:  46    -0.560101885668E+03   -0.69616E-04   -0.69611E-04  1296   0.382E-03 0.559E-06
CGA:  47    -0.560101960398E+03   -0.74730E-04   -0.74379E-04  1296   0.479E-03 0.613E-05
CGA:  48    -0.560102021620E+03   -0.61222E-04   -0.61336E-04  1296   0.377E-03 0.703E-05
CGA:  49    -0.560102080077E+03   -0.58457E-04   -0.58368E-04  1296   0.331E-03 0.945E-05
CGA:  50    -0.560102125041E+03   -0.44964E-04   -0.45062E-04  1296   0.187E-03 0.901E-05
CGA:  51    -0.560102153341E+03   -0.28300E-04   -0.28278E-04  1296   0.170E-03 0.385E-05
CGA:  52    -0.560102179001E+03   -0.25661E-04   -0.25665E-04  1296   0.112E-03-0.971E-06
CGA:  53    -0.560102193432E+03   -0.14430E-04   -0.14386E-04  1296   0.447E-04-0.356E-05
CGA:  54    -0.560102205392E+03   -0.11960E-04   -0.12844E-04  1296   0.437E-04-0.581E-05
CGA:  55    -0.560102212278E+03   -0.68858E-05   -0.69740E-05  1296   0.418E-04-0.271E-05
   1 F= -.56010221E+03 E0= -.56009378E+03  d E =-.560102E+03  mag=     8.0000
       N       E                     dE             d eps       ncg     rms          ort
SDA:   1    -0.560097074250E+03    0.51311E-02    0.00000E+00  1296   0.261E-01 0.000E+00
CGA:   2    -0.560099823849E+03   -0.27496E-02   -0.27506E-02  1296   0.140E-01 0.220E-04
CGA:   3    -0.560100946641E+03   -0.11228E-02   -0.11231E-02  1296   0.610E-02 0.165E-04
CGA:   4    -0.560102022262E+03   -0.10756E-02   -0.10754E-02  1296   0.277E-02 0.572E-05
CGA:   5    -0.560102266493E+03   -0.24423E-03   -0.24397E-03  1296   0.853E-03-0.357E-05
CGA:   6    -0.560102363744E+03   -0.97250E-04   -0.97213E-04  1296   0.390E-03-0.126E-05
CGA:   7    -0.560102400634E+03   -0.36891E-04   -0.36944E-04  1296   0.112E-03 0.114E-05
CGA:   8    -0.560102413270E+03   -0.12636E-04   -0.12688E-04  1296   0.566E-04 0.206E-05
CGA:   9    -0.560102419285E+03   -0.60147E-05   -0.60677E-05  1296   0.290E-04 0.165E-05
   2 F= -.56010242E+03 E0= -.56009399E+03  d E =-.207007E-03  mag=     8.0000
