       N       E                     dE             d eps       ncg     rms          ort
DAV:   1     0.129986536588E+05    0.12999E+05   -0.62503E+05  2976   0.167E+03
DAV:   2     0.513965704398E+03   -0.12485E+05   -0.11556E+05  2976   0.457E+02
DAV:   3    -0.110839275169E+04   -0.16224E+04   -0.15551E+04  2976   0.172E+02
DAV:   4    -0.118109946335E+04   -0.72707E+02   -0.71997E+02  2976   0.370E+01
DAV:   5    -0.118532723057E+04   -0.42278E+01   -0.42190E+01  2976   0.619E+00
SDA:   6    -0.118532945108E+04   -0.22205E-02   -0.42190E+01  2976   0.197E+00 0.000E+00
CGA:   7    -0.118534150104E+04   -0.12050E-01   -0.12161E-01  2976   0.265E+00-0.141E-02
CGA:   8    -0.118536804345E+04   -0.26542E-01   -0.26430E-01  2976   0.144E+00 0.295E-03
CGA:   9    -0.118537993446E+04   -0.11891E-01   -0.11250E-01  2976   0.537E-01 0.553E-02
CGA:  10    -0.118538951031E+04   -0.95758E-02   -0.95753E-02  2976   0.514E-01 0.231E-05
CGA:  11    -0.118539249818E+04   -0.29879E-02   -0.29818E-02  2976   0.508E-01 0.861E-04
CGA:  12    -0.118539683808E+04   -0.43399E-02   -0.43503E-02  2976   0.347E-01-0.771E-04
CGA:  13    -0.118540086747E+04   -0.40294E-02   -0.40208E-02  2976   0.193E-01-0.521E-04
CGA:  14    -0.118540307343E+04   -0.22060E-02   -0.22098E-02  2976   0.157E-01-0.442E-04
CGA:  15    -0.118540406922E+04   -0.99579E-03   -0.99123E-03  2976   0.166E-01-0.909E-06
CGA:  16    -0.118540524460E+04   -0.11754E-02   -0.11637E-02  2976   0.449E-02 0.502E-04
CGA:  17    -0.118540596700E+04   -0.72239E-03   -0.72251E-03  2976   0.504E-02-0.247E-04
CGA:  18    -0.118540628424E+04   -0.31724E-03   -0.31683E-03  2976   0.359E-02-0.259E-04
CGA:  19    -0.118540647944E+04   -0.19520E-03   -0.19350E-03  2976   0.184E-02-0.115E-04
CGA:  20    -0.118540670175E+04   -0.22231E-03   -0.22157E-03  2976   0.933E-03-0.293E-04
CGA:  21    -0.118540680596E+04   -0.10421E-03   -0.10356E-03  2976   0.136E-02-0.192E-04
CGA:  22    -0.118540686310E+04   -0.57141E-04   -0.56114E-04  2976   0.352E-03-0.117E-04
CGA:  23    -0.118540693055E+04   -0.67445E-04   -0.67893E-04  2976   0.284E-03-0.785E-05
CGA:  24    -0.118540695361E+04   -0.23058E-04   -0.23087E-04  2976   0.304E-03 0.428E-06
CGA:  25    -0.118540696969E+04   -0.16080E-04   -0.16238E-04  2976   0.157E-03 0.231E-05
CGA:  26    -0.118540698774E+04   -0.18053E-04   -0.18145E-04  2976   0.136E-03 0.475E-05
CGA:  27    -0.118540700252E+04   -0.14776E-04   -0.14915E-04  2976   0.874E-04 0.513E-05
CGA:  28    -0.118540700755E+04   -0.50335E-05   -0.51686E-05  2976   0.892E-04 0.176E-05
CGA:  29    -0.118540701808E+04   -0.10531E-04   -0.10580E-04  2976   0.484E-04 0.401E-05
CGA:  30    -0.118540702415E+04   -0.60747E-05   -0.60918E-05  2976   0.485E-04 0.234E-05
   1 F= -.11854070E+04 E0= -.11853909E+04  d E =-.118541E+04  mag=   118.0000
