       N       E                     dE             d eps       ncg     rms          ort
DAV:   1     0.117613595657E+05    0.11761E+05   -0.45955E+05  2208   0.168E+03
DAV:   2     0.851297079720E+03   -0.10910E+05   -0.10484E+05  2208   0.523E+02
DAV:   3    -0.844442575424E+03   -0.16957E+04   -0.16364E+04  2208   0.189E+02
DAV:   4    -0.971591164261E+03   -0.12715E+03   -0.12218E+03  2208   0.541E+01
DAV:   5    -0.980530406712E+03   -0.89392E+01   -0.86287E+01  2208   0.116E+01
SDA:   6     0.234703715065E+02    0.10040E+04   -0.86287E+01  2208   0.861E+04 0.000E+00
CGA:   7    -0.545350881254E+03   -0.56882E+03   -0.84975E+03  2208   0.772E+04-0.141E+04
CGA:   8    -0.516629428409E+03    0.28721E+02   -0.26087E+03  2208   0.104E+05-0.784E+04
CGA:   9    -0.402148076873E+03    0.11448E+03   -0.47608E+03  2208   0.101E+05-0.651E+04
CGA:  10    -0.327783502376E+03    0.74365E+02   -0.45936E+03  2208   0.118E+05-0.994E+04
CGA:  11    -0.434951726521E+03   -0.10717E+03   -0.47927E+03  2208   0.866E+04-0.968E+04
CGA:  12    -0.459673829239E+03   -0.24722E+02   -0.34822E+03  2208   0.114E+05-0.118E+05
CGA:  13    -0.464408480382E+03   -0.47347E+01   -0.45002E+03  2208   0.935E+04-0.927E+04
CGA:  14    -0.543618191389E+03   -0.79210E+02   -0.33852E+03  2208   0.929E+04-0.104E+05
CGA:  15    -0.626375047236E+03   -0.82757E+02   -0.30119E+03  2208   0.580E+04-0.684E+04
CGA:  16    -0.670833321671E+03   -0.44458E+02   -0.18238E+03  2208   0.635E+04-0.741E+04
CGA:  17    -0.677152100659E+03   -0.63188E+01   -0.19905E+03  2208   0.435E+04-0.439E+04
CGA:  18    -0.723464055711E+03   -0.46312E+02   -0.11964E+03  2208   0.455E+04-0.599E+04
CGA:  19    -0.696323805876E+03    0.27140E+02   -0.14979E+03  2208   0.382E+04-0.317E+04
CGA:  20    -0.732152242457E+03   -0.35828E+02   -0.10096E+03  2208   0.435E+04-0.550E+04
CGA:  21    -0.690536586471E+03    0.41616E+02   -0.14993E+03  2208   0.393E+04-0.297E+04
CGA:  22    -0.748327401727E+03   -0.57791E+02   -0.97045E+02  2208   0.358E+04-0.542E+04
CGA:  23    -0.714540433640E+03    0.33787E+02   -0.11664E+03  2208   0.359E+04-0.271E+04
CGA:  24    -0.747117340642E+03   -0.32577E+02   -0.87541E+02  2208   0.383E+04-0.495E+04
CGA:  25    -0.716704670607E+03    0.30413E+02   -0.11963E+03  2208   0.354E+04-0.275E+04
CGA:  26    -0.746779141802E+03   -0.30074E+02   -0.85728E+02  2208   0.395E+04-0.500E+04
CGA:  27    -0.721132441748E+03    0.25647E+02   -0.11783E+03  2208   0.345E+04-0.279E+04
CGA:  28    -0.749121289355E+03   -0.27989E+02   -0.81949E+02  2208   0.391E+04-0.491E+04
CGA:  29    -0.730638296987E+03    0.18483E+02   -0.10961E+03  2208   0.324E+04-0.275E+04
CGA:  30    -0.762791422908E+03   -0.32153E+02   -0.71729E+02  2208   0.311E+04-0.428E+04
CGA:  31    -0.748906612080E+03    0.13885E+02   -0.82590E+02  2208   0.271E+04-0.230E+04
CGA:  32    -0.776203842287E+03   -0.27297E+02   -0.55505E+02  2208   0.216E+04-0.317E+04
CGA:  33    -0.769289203183E+03    0.69146E+01   -0.52625E+02  2208   0.192E+04-0.167E+04
CGA:  34    -0.783488036531E+03   -0.14199E+02   -0.37826E+02  2208   0.161E+04-0.216E+04
CGA:  35    -0.783224235648E+03    0.26380E+00   -0.34635E+02  2208   0.129E+04-0.126E+04
CGA:  36    -0.794601939719E+03   -0.11378E+02   -0.22136E+02  2208   0.637E+03-0.104E+04
CGA:  37    -0.798197609968E+03   -0.35957E+01   -0.10710E+02  2208   0.284E+03-0.400E+03
CGA:  38    -0.801250066809E+03   -0.30525E+01   -0.31928E+01  2208   0.107E+02-0.265E+02
CGA:  39    -0.801741436424E+03   -0.49137E+00   -0.49130E+00  2208   0.295E+02-0.172E-02
CGA:  40    -0.803475520074E+03   -0.17341E+01   -0.25857E+01  2208   0.177E+03-0.302E+02
CGA:  41    -0.804740657684E+03   -0.12651E+01   -0.21258E+01  2208   0.448E+02-0.655E+02
CGA:  42    -0.805259113827E+03   -0.51846E+00   -0.55166E+00  2208   0.516E+01-0.140E+01
CGA:  43    -0.805387047461E+03   -0.12793E+00   -0.12986E+00  2208   0.636E+01-0.439E-01
CGA:  44    -0.805704455346E+03   -0.31741E+00   -0.31704E+00  2208   0.158E+02-0.303E-01
CGA:  45    -0.806439460012E+03   -0.73500E+00   -0.73702E+00  2208   0.186E+02 0.239E+00
CGA:  46    -0.806806458949E+03   -0.36700E+00   -0.29626E+00  2208   0.744E+01 0.376E+01
CGA:  47    -0.807026426638E+03   -0.21997E+00   -0.21886E+00  2208   0.270E+01 0.262E-01
CGA:  48    -0.807074861314E+03   -0.48435E-01   -0.47393E-01  2208   0.194E+01 0.423E-01
CGA:  49    -0.807137723693E+03   -0.62862E-01   -0.63750E-01  2208   0.301E+01-0.228E-02
CGA:  50    -0.807236193051E+03   -0.98469E-01   -0.99331E-01  2208   0.306E+01-0.170E-03
CGA:  51    -0.807293773613E+03   -0.57581E-01   -0.59681E-01  2208   0.135E+01-0.707E-01
CGA:  52    -0.807326185676E+03   -0.32412E-01   -0.33076E-01  2208   0.115E+01-0.117E-01
CGA:  53    -0.807359894740E+03   -0.33709E-01   -0.33875E-01  2208   0.153E+01-0.105E-02
CGA:  54    -0.807401612271E+03   -0.41718E-01   -0.42169E-01  2208   0.150E+01-0.355E-02
CGA:  55    -0.807456556349E+03   -0.54944E-01   -0.55362E-01  2208   0.771E+00 0.199E-01
CGA:  56    -0.807473201480E+03   -0.16645E-01   -0.16553E-01  2208   0.529E+00 0.164E-02
CGA:  57    -0.807486351695E+03   -0.13150E-01   -0.13258E-01  2208   0.419E+00-0.171E-02
CGA:  58    -0.807501408469E+03   -0.15057E-01   -0.15086E-01  2208   0.676E+00 0.155E-02
CGA:  59    -0.807521718433E+03   -0.20310E-01   -0.20367E-01  2208   0.515E+00-0.400E-03
CGA:  60    -0.807537803897E+03   -0.16085E-01   -0.16172E-01  2208   0.198E+00 0.113E-02
CGA:  61    -0.807542939733E+03   -0.51358E-02   -0.51311E-02  2208   0.208E+00-0.625E-03
CGA:  62    -0.807548933196E+03   -0.59935E-02   -0.60187E-02  2208   0.200E+00-0.512E-03
CGA:  63    -0.807557361758E+03   -0.84286E-02   -0.84257E-02  2208   0.297E+00-0.189E-03
CGA:  64    -0.807564610517E+03   -0.72488E-02   -0.72503E-02  2208   0.130E+00-0.159E-02
CGA:  65    -0.807568868059E+03   -0.42575E-02   -0.42597E-02  2208   0.581E-01-0.404E-03
CGA:  66    -0.807570773854E+03   -0.19058E-02   -0.19048E-02  2208   0.836E-01-0.228E-03
CGA:  67    -0.807573921268E+03   -0.31474E-02   -0.31474E-02  2208   0.101E+00 0.174E-03
CGA:  68    -0.807577109684E+03   -0.31884E-02   -0.31830E-02  2208   0.109E+00-0.372E-03
CGA:  69    -0.807579657111E+03   -0.25474E-02   -0.25489E-02  2208   0.382E-01-0.125E-03
CGA:  70    -0.807580819555E+03   -0.11624E-02   -0.11628E-02  2208   0.270E-01-0.643E-05
SDA:  71    -0.807581854417E+03   -0.10349E-02   -0.10350E-02  2208   0.363E-01-0.516E-04
CGA:  72    -0.807582403627E+03   -0.54921E-03   -0.54901E-03  2208   0.159E-01 0.188E-04
CGA:  73    -0.807582965464E+03   -0.56184E-03   -0.56184E-03  2208   0.156E-01 0.379E-04
CGA:  74    -0.807583672009E+03   -0.70655E-03   -0.70557E-03  2208   0.331E-01 0.929E-04
CGA:  75    -0.807584665807E+03   -0.99380E-03   -0.99438E-03  2208   0.266E-01 0.143E-03
CGA:  76    -0.807585744872E+03   -0.10791E-02   -0.10779E-02  2208   0.123E-01 0.251E-03
CGA:  77    -0.807586309199E+03   -0.56433E-03   -0.56208E-03  2208   0.165E-01 0.239E-03
CGA:  78    -0.807587533832E+03   -0.12246E-02   -0.12008E-02  2208   0.206E-01 0.678E-03
CGA:  79    -0.807588373577E+03   -0.83974E-03   -0.83941E-03  2208   0.848E-02 0.362E-03
CGA:  80    -0.807588679785E+03   -0.30621E-03   -0.30662E-03  2208   0.819E-02 0.141E-03
CGA:  81    -0.807588876175E+03   -0.19639E-03   -0.19670E-03  2208   0.860E-02 0.636E-04
CGA:  82    -0.807589236017E+03   -0.35984E-03   -0.35944E-03  2208   0.731E-02 0.809E-04
CGA:  83    -0.807589564231E+03   -0.32821E-03   -0.32853E-03  2208   0.295E-02-0.293E-04
CGA:  84    -0.807589723643E+03   -0.15941E-03   -0.16014E-03  2208   0.433E-02-0.450E-04
CGA:  85    -0.807589846873E+03   -0.12323E-03   -0.12271E-03  2208   0.538E-02-0.484E-04
CGA:  86    -0.807590183615E+03   -0.33674E-03   -0.34290E-03  2208   0.687E-02-0.233E-03
CGA:  87    -0.807590333857E+03   -0.15024E-03   -0.14794E-03  2208   0.222E-02-0.562E-04
CGA:  88    -0.807590385934E+03   -0.52077E-04   -0.51740E-04  2208   0.220E-02-0.301E-04
CGA:  89    -0.807590456658E+03   -0.70725E-04   -0.70445E-04  2208   0.211E-02-0.462E-04
CGA:  90    -0.807590596914E+03   -0.14026E-03   -0.14375E-03  2208   0.315E-02-0.111E-03
CGA:  91    -0.807590714959E+03   -0.11804E-03   -0.11807E-03  2208   0.920E-03-0.834E-04
CGA:  92    -0.807590743234E+03   -0.28275E-04   -0.28175E-04  2208   0.770E-03-0.155E-04
CGA:  93    -0.807590769022E+03   -0.25788E-04   -0.25749E-04  2208   0.107E-02-0.946E-05
CGA:  94    -0.807590826357E+03   -0.57335E-04   -0.57383E-04  2208   0.187E-02-0.567E-05
CGA:  95    -0.807590878663E+03   -0.52306E-04   -0.52254E-04  2208   0.654E-03 0.241E-06
CGA:  96    -0.807590895190E+03   -0.16527E-04   -0.16633E-04  2208   0.734E-03 0.539E-05
CGA:  97    -0.807590918445E+03   -0.23255E-04   -0.23372E-04  2208   0.718E-03 0.164E-04
CGA:  98    -0.807590962484E+03   -0.44040E-04   -0.43086E-04  2208   0.767E-03 0.435E-04
CGA:  99    -0.807590996385E+03   -0.33901E-04   -0.33810E-04  2208   0.426E-03 0.322E-04
CGA: 100    -0.807591009500E+03   -0.13115E-04   -0.13244E-04  2208   0.346E-03 0.115E-04
CGA: 101    -0.807591019916E+03   -0.10416E-04   -0.10506E-04  2208   0.441E-03 0.798E-05
SDA: 102    -0.807591036458E+03   -0.16541E-04   -0.16562E-04  2208   0.535E-03 0.124E-04
CGA: 103    -0.807591046719E+03   -0.10261E-04   -0.10245E-04  2208   0.267E-03-0.287E-05
CGA: 104    -0.807591052796E+03   -0.60771E-05   -0.60555E-05  2208   0.216E-03-0.378E-05
   1 F= -.80759105E+03 E0= -.80750632E+03  d E =-.807591E+03  mag=    66.0000
       N       E                     dE             d eps       ncg     rms          ort
SDA:   1    -0.807483289055E+03    0.10776E+00    0.00000E+00  2208   0.129E+02 0.000E+00
CGA:   2    -0.807593389614E+03   -0.11010E+00   -0.11186E+00  2208   0.251E+00-0.194E+00
CGA:   3    -0.807597665690E+03   -0.42761E-02   -0.42990E-02  2208   0.546E-01-0.658E-03
CGA:   4    -0.807598747002E+03   -0.10813E-02   -0.10804E-02  2208   0.256E-01 0.148E-04
CGA:   5    -0.807599418940E+03   -0.67194E-03   -0.67175E-03  2208   0.166E-01-0.851E-05
CGA:   6    -0.807600302203E+03   -0.88326E-03   -0.88327E-03  2208   0.278E-01-0.236E-05
CGA:   7    -0.807600990517E+03   -0.68831E-03   -0.68821E-03  2208   0.194E-01-0.151E-04
CGA:   8    -0.807601378934E+03   -0.38842E-03   -0.38824E-03  2208   0.594E-02-0.146E-04
CGA:   9    -0.807601570226E+03   -0.19129E-03   -0.19127E-03  2208   0.246E-02-0.188E-04
CGA:  10    -0.807601690567E+03   -0.12034E-03   -0.12076E-03  2208   0.594E-02-0.273E-04
CGA:  11    -0.807601846489E+03   -0.15592E-03   -0.15562E-03  2208   0.409E-02-0.396E-04
CGA:  12    -0.807601953054E+03   -0.10657E-03   -0.10634E-03  2208   0.853E-03-0.320E-04
CGA:  13    -0.807601972704E+03   -0.19650E-04   -0.19573E-04  2208   0.590E-03-0.839E-05
CGA:  14    -0.807601986608E+03   -0.13903E-04   -0.13840E-04  2208   0.312E-03-0.798E-05
CGA:  15    -0.807602005530E+03   -0.18922E-04   -0.19321E-04  2208   0.596E-03-0.139E-04
CGA:  16    -0.807602019672E+03   -0.14143E-04   -0.14056E-04  2208   0.534E-03-0.103E-04
CGA:  17    -0.807602032258E+03   -0.12586E-04   -0.12512E-04  2208   0.105E-03-0.839E-05
CGA:  18    -0.807602036323E+03   -0.40649E-05   -0.40786E-05  2208   0.962E-04-0.260E-05
   2 F= -.80760204E+03 E0= -.80751723E+03  d E =-.109835E-01  mag=    66.0000
       N       E                     dE             d eps       ncg     rms          ort
SDA:   1    -0.776643798686E+03    0.30958E+02    0.00000E+00  2208   0.136E+03 0.000E+00
CGA:   2    -0.782024581262E+03   -0.53808E+01   -0.53681E+01  2208   0.313E+03 0.196E+01
CGA:   3    -0.793303370996E+03   -0.11279E+02   -0.11262E+02  2208   0.190E+03 0.551E+01
CGA:   4    -0.799360237437E+03   -0.60569E+01   -0.59820E+01  2208   0.118E+03-0.943E+01
CGA:   5    -0.801302912148E+03   -0.19427E+01   -0.18560E+01  2208   0.557E+02 0.226E+01
CGA:   6    -0.803036542371E+03   -0.17336E+01   -0.17382E+01  2208   0.423E+02 0.811E+00
CGA:   7    -0.804680080748E+03   -0.16435E+01   -0.16436E+01  2208   0.914E+02 0.173E-01
CGA:   8    -0.806454833491E+03   -0.17748E+01   -0.17410E+01  2208   0.307E+02 0.536E+00
CGA:   9    -0.807151224641E+03   -0.69639E+00   -0.69066E+00  2208   0.198E+02 0.600E-02
CGA:  10    -0.807455309154E+03   -0.30408E+00   -0.29761E+00  2208   0.629E+01 0.210E+00
CGA:  11    -0.807635437838E+03   -0.18013E+00   -0.18025E+00  2208   0.665E+01 0.174E-01
CGA:  12    -0.807803370879E+03   -0.16793E+00   -0.16878E+00  2208   0.877E+01 0.427E-01
CGA:  13    -0.808050608354E+03   -0.24724E+00   -0.24732E+00  2208   0.422E+01 0.145E-01
CGA:  14    -0.808154600880E+03   -0.10399E+00   -0.10414E+00  2208   0.214E+01 0.614E-02
CGA:  15    -0.808186438563E+03   -0.31838E-01   -0.32259E-01  2208   0.874E+00-0.138E-01
CGA:  16    -0.808211538374E+03   -0.25100E-01   -0.25103E-01  2208   0.646E+00 0.299E-02
CGA:  17    -0.808234826996E+03   -0.23289E-01   -0.23241E-01  2208   0.122E+01 0.517E-02
CGA:  18    -0.808270313995E+03   -0.35487E-01   -0.35499E-01  2208   0.834E+00 0.707E-02
CGA:  19    -0.808293789516E+03   -0.23476E-01   -0.23489E-01  2208   0.245E+00 0.364E-02
CGA:  20    -0.808299988858E+03   -0.61993E-02   -0.62060E-02  2208   0.222E+00 0.551E-03
CGA:  21    -0.808304777536E+03   -0.47887E-02   -0.47925E-02  2208   0.164E+00 0.232E-04
CGA:  22    -0.808316877249E+03   -0.12100E-01   -0.11971E-01  2208   0.292E+00 0.311E-02
CGA:  23    -0.808323264257E+03   -0.63870E-02   -0.64046E-02  2208   0.224E+00-0.254E-04
CGA:  24    -0.808329650840E+03   -0.63866E-02   -0.63913E-02  2208   0.754E-01 0.849E-03
CGA:  25    -0.808332378920E+03   -0.27281E-02   -0.27270E-02  2208   0.767E-01 0.148E-03
CGA:  26    -0.808334457520E+03   -0.20786E-02   -0.20793E-02  2208   0.106E+00 0.119E-03
CGA:  27    -0.808338775519E+03   -0.43180E-02   -0.43083E-02  2208   0.915E-01 0.776E-03
CGA:  28    -0.808342140533E+03   -0.33650E-02   -0.33629E-02  2208   0.458E-01 0.352E-03
CGA:  29    -0.808342958227E+03   -0.81769E-03   -0.81903E-03  2208   0.292E-01 0.656E-04
CGA:  30    -0.808344478200E+03   -0.15200E-02   -0.15178E-02  2208   0.328E-01 0.103E-03
CGA:  31    -0.808346001903E+03   -0.15237E-02   -0.15218E-02  2208   0.672E-01 0.124E-03
SDA:  32    -0.808347416432E+03   -0.14145E-02   -0.14160E-02  2208   0.269E-01 0.829E-04
CGA:  33    -0.808347924065E+03   -0.50763E-03   -0.50698E-03  2208   0.102E-01-0.258E-04
CGA:  34    -0.808348147773E+03   -0.22371E-03   -0.22327E-03  2208   0.945E-02-0.465E-04
CGA:  35    -0.808348747393E+03   -0.59962E-03   -0.60631E-03  2208   0.160E-01-0.202E-03
CGA:  36    -0.808349363515E+03   -0.61612E-03   -0.61748E-03  2208   0.212E-01-0.196E-03
CGA:  37    -0.808349803587E+03   -0.44007E-03   -0.43860E-03  2208   0.740E-02-0.109E-03
CGA:  38    -0.808350083420E+03   -0.27983E-03   -0.27996E-03  2208   0.434E-02-0.210E-04
CGA:  39    -0.808350345864E+03   -0.26244E-03   -0.26063E-03  2208   0.767E-02 0.647E-04
CGA:  40    -0.808350748370E+03   -0.40251E-03   -0.40003E-03  2208   0.808E-02 0.141E-03
CGA:  41    -0.808350888088E+03   -0.13972E-03   -0.14052E-03  2208   0.420E-02 0.473E-04
CGA:  42    -0.808351026566E+03   -0.13848E-03   -0.13851E-03  2208   0.249E-02 0.286E-04
CGA:  43    -0.808351168686E+03   -0.14212E-03   -0.14229E-03  2208   0.303E-02-0.876E-05
CGA:  44    -0.808351369489E+03   -0.20080E-03   -0.20242E-03  2208   0.410E-02-0.518E-04
CGA:  45    -0.808351445771E+03   -0.76282E-04   -0.75890E-04  2208   0.207E-02-0.203E-04
CGA:  46    -0.808351488008E+03   -0.42238E-04   -0.42058E-04  2208   0.777E-03-0.126E-04
CGA:  47    -0.808351558173E+03   -0.70165E-04   -0.70609E-04  2208   0.160E-02-0.911E-05
CGA:  48    -0.808351609288E+03   -0.51115E-04   -0.51119E-04  2208   0.211E-02-0.645E-07
CGA:  49    -0.808351662648E+03   -0.53360E-04   -0.53445E-04  2208   0.522E-03 0.573E-05
CGA:  50    -0.808351682262E+03   -0.19613E-04   -0.19609E-04  2208   0.414E-03 0.833E-05
CGA:  51    -0.808351694040E+03   -0.11779E-04   -0.11865E-04  2208   0.609E-03 0.899E-05
CGA:  52    -0.808351718511E+03   -0.24471E-04   -0.24405E-04  2208   0.600E-03 0.230E-04
CGA:  53    -0.808351748253E+03   -0.29742E-04   -0.29440E-04  2208   0.407E-03 0.275E-04
CGA:  54    -0.808351761522E+03   -0.13269E-04   -0.13323E-04  2208   0.184E-03 0.855E-05
CGA:  55    -0.808351767103E+03   -0.55806E-05   -0.55814E-05  2208   0.243E-03-0.573E-06
   3 F= -.80835177E+03 E0= -.80826767E+03  d E =-.749731E+00  mag=    66.0000
       N       E                     dE             d eps       ncg     rms          ort
SDA:   1    -0.797759732773E+03    0.10592E+02    0.00000E+00  2208   0.652E+02 0.000E+00
CGA:   2    -0.799054245730E+03   -0.12945E+01   -0.12682E+01  2208   0.655E+02 0.260E+00
CGA:   3    -0.803117566402E+03   -0.40633E+01   -0.40686E+01  2208   0.747E+02-0.229E+00
CGA:   4    -0.805420116098E+03   -0.23025E+01   -0.22963E+01  2208   0.413E+02-0.345E+00
CGA:   5    -0.806225590518E+03   -0.80547E+00   -0.79784E+00  2208   0.197E+02 0.883E-01
CGA:   6    -0.806885573832E+03   -0.65998E+00   -0.66016E+00  2208   0.121E+02 0.340E-01
CGA:   7    -0.807668097611E+03   -0.78252E+00   -0.78439E+00  2208   0.192E+02-0.568E-01
CGA:   8    -0.808102114149E+03   -0.43402E+00   -0.43222E+00  2208   0.120E+02 0.969E-02
CGA:   9    -0.808308913179E+03   -0.20680E+00   -0.20698E+00  2208   0.232E+01-0.531E-02
CGA:  10    -0.808390098991E+03   -0.81186E-01   -0.81179E-01  2208   0.144E+01-0.848E-02
CGA:  11    -0.808475146992E+03   -0.85048E-01   -0.84766E-01  2208   0.205E+01 0.109E-01
CGA:  12    -0.808528636259E+03   -0.53489E-01   -0.53583E-01  2208   0.195E+01 0.116E-02
CGA:  13    -0.808568530784E+03   -0.39895E-01   -0.39914E-01  2208   0.345E+00-0.790E-04
CGA:  14    -0.808579462010E+03   -0.10931E-01   -0.10934E-01  2208   0.215E+00 0.280E-03
CGA:  15    -0.808585108545E+03   -0.56465E-02   -0.56518E-02  2208   0.219E+00 0.148E-03
CGA:  16    -0.808595749327E+03   -0.10641E-01   -0.10623E-01  2208   0.291E+00 0.984E-03
CGA:  17    -0.808607855726E+03   -0.12106E-01   -0.12100E-01  2208   0.645E-01 0.660E-03
CGA:  18    -0.808610450629E+03   -0.25949E-02   -0.25945E-02  2208   0.420E-01 0.350E-04
CGA:  19    -0.808611910279E+03   -0.14596E-02   -0.14597E-02  2208   0.819E-01-0.891E-05
CGA:  20    -0.808615487463E+03   -0.35772E-02   -0.35764E-02  2208   0.762E-01 0.126E-04
CGA:  21    -0.808618046003E+03   -0.25585E-02   -0.25592E-02  2208   0.649E-01 0.767E-04
CGA:  22    -0.808619345846E+03   -0.12998E-02   -0.13020E-02  2208   0.257E-01-0.478E-04
CGA:  23    -0.808620152418E+03   -0.80657E-03   -0.80688E-03  2208   0.186E-01 0.507E-04
CGA:  24    -0.808621529231E+03   -0.13768E-02   -0.13702E-02  2208   0.281E-01 0.172E-03
CGA:  25    -0.808623233703E+03   -0.17045E-02   -0.16978E-02  2208   0.172E-01 0.283E-03
CGA:  26    -0.808623585069E+03   -0.35137E-03   -0.35232E-03  2208   0.100E-01 0.271E-04
CGA:  27    -0.808623956178E+03   -0.37111E-03   -0.37111E-03  2208   0.970E-02 0.143E-04
CGA:  28    -0.808624519212E+03   -0.56303E-03   -0.56324E-03  2208   0.117E-01-0.117E-04
CGA:  29    -0.808624987157E+03   -0.46794E-03   -0.46800E-03  2208   0.134E-01-0.299E-04
CGA:  30    -0.808625203465E+03   -0.21631E-03   -0.21603E-03  2208   0.333E-02-0.222E-04
CGA:  31    -0.808625363543E+03   -0.16008E-03   -0.16035E-03  2208   0.331E-02-0.263E-04
SDA:  32    -0.808625494531E+03   -0.13099E-03   -0.13104E-03  2208   0.575E-02-0.243E-04
CGA:  33    -0.808625570644E+03   -0.76113E-04   -0.76133E-04  2208   0.163E-02-0.121E-05
CGA:  34    -0.808625643617E+03   -0.72972E-04   -0.72974E-04  2208   0.146E-02-0.809E-06
CGA:  35    -0.808625735936E+03   -0.92319E-04   -0.92327E-04  2208   0.445E-02-0.402E-06
CGA:  36    -0.808625849544E+03   -0.11361E-03   -0.11361E-03  2208   0.279E-02 0.143E-05
CGA:  37    -0.808625951605E+03   -0.10206E-03   -0.10206E-03  2208   0.146E-02-0.132E-05
CGA:  38    -0.808626003966E+03   -0.52361E-04   -0.52364E-04  2208   0.615E-03 0.159E-05
CGA:  39    -0.808626059139E+03   -0.55173E-04   -0.54986E-04  2208   0.119E-02 0.276E-05
CGA:  40    -0.808626125860E+03   -0.66721E-04   -0.66649E-04  2208   0.130E-02 0.408E-05
CGA:  41    -0.808626158557E+03   -0.32697E-04   -0.32710E-04  2208   0.101E-02 0.592E-06
CGA:  42    -0.808626180218E+03   -0.21661E-04   -0.21636E-04  2208   0.375E-03-0.167E-05
CGA:  43    -0.808626199967E+03   -0.19749E-04   -0.19819E-04  2208   0.638E-03-0.566E-05
CGA:  44    -0.808626221889E+03   -0.21922E-04   -0.21879E-04  2208   0.910E-03-0.900E-05
CGA:  45    -0.808626252439E+03   -0.30550E-04   -0.30476E-04  2208   0.300E-03-0.132E-04
CGA:  46    -0.808626264985E+03   -0.12546E-04   -0.12562E-04  2208   0.162E-03-0.537E-05
CGA:  47    -0.808626275223E+03   -0.10238E-04   -0.10289E-04  2208   0.290E-03-0.240E-05
CGA:  48    -0.808626288246E+03   -0.13022E-04   -0.13021E-04  2208   0.580E-03-0.286E-06
CGA:  49    -0.808626300470E+03   -0.12224E-04   -0.12242E-04  2208   0.146E-03 0.365E-06
CGA:  50    -0.808626306165E+03   -0.56947E-05   -0.56973E-05  2208   0.924E-04 0.193E-05
   4 F= -.80862631E+03 E0= -.80854629E+03  d E =-.274539E+00  mag=    66.0000
       N       E                     dE             d eps       ncg     rms          ort
SDA:   1    -0.778352670942E+03    0.30274E+02    0.00000E+00  2208   0.153E+03 0.000E+00
CGA:   2    -0.783265941808E+03   -0.49133E+01   -0.48605E+01  2208   0.238E+03-0.248E+01
CGA:   3    -0.792201726838E+03   -0.89358E+01   -0.89382E+01  2208   0.189E+03 0.118E+01
CGA:   4    -0.799529105098E+03   -0.73274E+01   -0.73202E+01  2208   0.105E+03-0.743E+01
CGA:   5    -0.802174827660E+03   -0.26457E+01   -0.25814E+01  2208   0.814E+02-0.119E+00
CGA:   6    -0.803685413262E+03   -0.15106E+01   -0.14228E+01  2208   0.359E+02 0.260E+01
CGA:   7    -0.805007895997E+03   -0.13225E+01   -0.13207E+01  2208   0.656E+02-0.511E+00
CGA:   8    -0.806722041554E+03   -0.17141E+01   -0.17137E+01  2208   0.461E+02 0.208E-01
CGA:   9    -0.807640241481E+03   -0.91820E+00   -0.94050E+00  2208   0.302E+02-0.479E+00
CGA:  10    -0.808072787228E+03   -0.43255E+00   -0.42929E+00  2208   0.628E+01 0.169E+00
CGA:  11    -0.808230458159E+03   -0.15767E+00   -0.15667E+00  2208   0.575E+01-0.803E-02
CGA:  12    -0.808338914948E+03   -0.10846E+00   -0.10865E+00  2208   0.473E+01-0.391E-02
CGA:  13    -0.808556285062E+03   -0.21737E+00   -0.21597E+00  2208   0.637E+01 0.872E-01
CGA:  14    -0.808671363816E+03   -0.11508E+00   -0.11688E+00  2208   0.358E+01-0.405E-01
CGA:  15    -0.808745887398E+03   -0.74524E-01   -0.74884E-01  2208   0.995E+00-0.234E-02
CGA:  16    -0.808764363890E+03   -0.18476E-01   -0.18563E-01  2208   0.609E+00-0.137E-02
CGA:  17    -0.808782138422E+03   -0.17775E-01   -0.17794E-01  2208   0.519E+00 0.293E-02
CGA:  18    -0.808800884006E+03   -0.18746E-01   -0.18732E-01  2208   0.101E+01 0.206E-02
CGA:  19    -0.808833311654E+03   -0.32428E-01   -0.32431E-01  2208   0.509E+00 0.168E-01
CGA:  20    -0.808845566994E+03   -0.12255E-01   -0.12319E-01  2208   0.245E+00 0.121E-02
CGA:  21    -0.808849741587E+03   -0.41746E-02   -0.42041E-02  2208   0.123E+00-0.673E-03
CGA:  22    -0.808855543470E+03   -0.58019E-02   -0.57833E-02  2208   0.136E+00 0.921E-03
CGA:  23    -0.808861827163E+03   -0.62837E-02   -0.62578E-02  2208   0.309E+00 0.149E-02
CGA:  24    -0.808869739184E+03   -0.79120E-02   -0.79236E-02  2208   0.132E+00 0.395E-03
CGA:  25    -0.808873962741E+03   -0.42236E-02   -0.42237E-02  2208   0.688E-01 0.531E-03
CGA:  26    -0.808875454619E+03   -0.14919E-02   -0.14949E-02  2208   0.504E-01 0.769E-04
CGA:  27    -0.808878301889E+03   -0.28473E-02   -0.28382E-02  2208   0.840E-01 0.352E-03
CGA:  28    -0.808880821351E+03   -0.25195E-02   -0.25210E-02  2208   0.853E-01 0.323E-03
CGA:  29    -0.808883171855E+03   -0.23505E-02   -0.23523E-02  2208   0.335E-01 0.235E-03
CGA:  30    -0.808884455527E+03   -0.12837E-02   -0.12827E-02  2208   0.236E-01 0.122E-03
CGA:  31    -0.808885088794E+03   -0.63327E-03   -0.63333E-03  2208   0.292E-01-0.102E-04
SDA:  32    -0.808886467351E+03   -0.13786E-02   -0.13799E-02  2208   0.276E-01-0.981E-04
CGA:  33    -0.808887188220E+03   -0.72087E-03   -0.72090E-03  2208   0.666E-02-0.138E-04
CGA:  34    -0.808887462465E+03   -0.27424E-03   -0.27443E-03  2208   0.115E-01-0.271E-04
CGA:  35    -0.808887915522E+03   -0.45306E-03   -0.45346E-03  2208   0.155E-01-0.619E-04
CGA:  36    -0.808888627994E+03   -0.71247E-03   -0.71377E-03  2208   0.135E-01-0.105E-03
CGA:  37    -0.808889075867E+03   -0.44787E-03   -0.44784E-03  2208   0.110E-01-0.434E-04
CGA:  38    -0.808889326537E+03   -0.25067E-03   -0.25052E-03  2208   0.346E-02-0.843E-05
CGA:  39    -0.808889627055E+03   -0.30052E-03   -0.29811E-03  2208   0.523E-02 0.436E-04
CGA:  40    -0.808890000321E+03   -0.37327E-03   -0.37096E-03  2208   0.356E-02 0.653E-04
CGA:  41    -0.808890177084E+03   -0.17676E-03   -0.17660E-03  2208   0.215E-02 0.125E-04
CGA:  42    -0.808890284764E+03   -0.10768E-03   -0.10784E-03  2208   0.193E-02-0.150E-04
CGA:  43    -0.808890411717E+03   -0.12695E-03   -0.12798E-03  2208   0.536E-02-0.384E-04
CGA:  44    -0.808890542668E+03   -0.13095E-03   -0.13036E-03  2208   0.132E-02-0.361E-04
CGA:  45    -0.808890587786E+03   -0.45118E-04   -0.45100E-04  2208   0.116E-02-0.441E-05
CGA:  46    -0.808890614793E+03   -0.27007E-04   -0.27078E-04  2208   0.733E-03 0.366E-05
CGA:  47    -0.808890665744E+03   -0.50951E-04   -0.50248E-04  2208   0.106E-02 0.224E-04
CGA:  48    -0.808890735540E+03   -0.69796E-04   -0.68902E-04  2208   0.699E-03 0.382E-04
CGA:  49    -0.808890755755E+03   -0.20215E-04   -0.20356E-04  2208   0.401E-03 0.993E-05
CGA:  50    -0.808890766442E+03   -0.10688E-04   -0.10755E-04  2208   0.427E-03 0.393E-05
CGA:  51    -0.808890799200E+03   -0.32758E-04   -0.32307E-04  2208   0.615E-03 0.122E-04
CGA:  52    -0.808890817194E+03   -0.17994E-04   -0.18046E-04  2208   0.554E-03 0.320E-05
CGA:  53    -0.808890833837E+03   -0.16643E-04   -0.16652E-04  2208   0.181E-03 0.210E-06
CGA:  54    -0.808890845040E+03   -0.11203E-04   -0.11324E-04  2208   0.222E-03-0.610E-05
CGA:  55    -0.808890858881E+03   -0.13841E-04   -0.14117E-04  2208   0.418E-03-0.119E-04
CGA:  56    -0.808890868009E+03   -0.91281E-05   -0.89952E-05  2208   0.272E-03-0.713E-05
   5 F= -.80889087E+03 E0= -.80881978E+03  d E =-.264562E+00  mag=    66.0000
       N       E                     dE             d eps       ncg     rms          ort
SDA:   1    -0.805859289160E+03    0.30316E+01    0.00000E+00  2208   0.116E+02 0.000E+00
CGA:   2    -0.806885537467E+03   -0.10262E+01   -0.10520E+01  2208   0.279E+02-0.510E+00
CGA:   3    -0.807663665346E+03   -0.77813E+00   -0.77667E+00  2208   0.150E+02-0.585E-02
CGA:   4    -0.808065730309E+03   -0.40206E+00   -0.40437E+00  2208   0.577E+01 0.436E-02
CGA:   5    -0.808353406164E+03   -0.28768E+00   -0.28805E+00  2208   0.571E+01-0.313E-01
CGA:   6    -0.808561985494E+03   -0.20858E+00   -0.20805E+00  2208   0.794E+01-0.280E-01
CGA:   7    -0.808770030152E+03   -0.20804E+00   -0.20814E+00  2208   0.248E+01-0.491E-03
CGA:   8    -0.808851162317E+03   -0.81132E-01   -0.80932E-01  2208   0.684E+00-0.490E-02
CGA:   9    -0.808875515104E+03   -0.24353E-01   -0.24327E-01  2208   0.522E+00-0.150E-02
CGA:  10    -0.808896341725E+03   -0.20827E-01   -0.20828E-01  2208   0.678E+00 0.724E-03
CGA:  11    -0.808924317743E+03   -0.27976E-01   -0.27975E-01  2208   0.270E+00 0.170E-02
CGA:  12    -0.808932387255E+03   -0.80695E-02   -0.80834E-02  2208   0.814E-01 0.252E-03
CGA:  13    -0.808934324920E+03   -0.19377E-02   -0.19384E-02  2208   0.705E-01 0.224E-04
CGA:  14    -0.808937233010E+03   -0.29081E-02   -0.29077E-02  2208   0.616E-01 0.147E-03
CGA:  15    -0.808941052999E+03   -0.38200E-02   -0.38189E-02  2208   0.561E-01 0.512E-04
CGA:  16    -0.808942789161E+03   -0.17362E-02   -0.17364E-02  2208   0.336E-01 0.351E-04
CGA:  17    -0.808943553504E+03   -0.76434E-03   -0.76546E-03  2208   0.867E-02 0.116E-04
CGA:  18    -0.808944407227E+03   -0.85372E-03   -0.84892E-03  2208   0.193E-01 0.840E-04
CGA:  19    -0.808945170424E+03   -0.76320E-03   -0.76342E-03  2208   0.267E-01 0.645E-04
CGA:  20    -0.808945823885E+03   -0.65346E-03   -0.65525E-03  2208   0.811E-02 0.334E-04
CGA:  21    -0.808946165632E+03   -0.34175E-03   -0.34174E-03  2208   0.498E-02 0.583E-05
CGA:  22    -0.808946380864E+03   -0.21523E-03   -0.21526E-03  2208   0.763E-02-0.176E-04
CGA:  23    -0.808946781758E+03   -0.40089E-03   -0.40150E-03  2208   0.976E-02-0.551E-04
CGA:  24    -0.808947113496E+03   -0.33174E-03   -0.33143E-03  2208   0.276E-02-0.462E-04
CGA:  25    -0.808947223609E+03   -0.11011E-03   -0.11011E-03  2208   0.301E-02 0.384E-06
CGA:  26    -0.808947303854E+03   -0.80245E-04   -0.80445E-04  2208   0.258E-02 0.111E-04
CGA:  27    -0.808947449012E+03   -0.14516E-03   -0.14461E-03  2208   0.267E-02 0.358E-04
CGA:  28    -0.808947569510E+03   -0.12050E-03   -0.12041E-03  2208   0.141E-02 0.299E-04
CGA:  29    -0.808947611261E+03   -0.41750E-04   -0.41808E-04  2208   0.104E-02 0.410E-05
CGA:  30    -0.808947648422E+03   -0.37162E-04   -0.37141E-04  2208   0.811E-03-0.419E-05
CGA:  31    -0.808947712171E+03   -0.63749E-04   -0.64655E-04  2208   0.180E-02-0.234E-04
SDA:  32    -0.808947746416E+03   -0.34245E-04   -0.33994E-04  2208   0.646E-03-0.122E-04
CGA:  33    -0.808947761910E+03   -0.15494E-04   -0.15521E-04  2208   0.418E-03 0.155E-05
CGA:  34    -0.808947772152E+03   -0.10242E-04   -0.10290E-04  2208   0.238E-03 0.274E-05
CGA:  35    -0.808947793948E+03   -0.21796E-04   -0.21349E-04  2208   0.565E-03 0.880E-05
CGA:  36    -0.808947813867E+03   -0.19920E-04   -0.19971E-04  2208   0.443E-03 0.612E-05
CGA:  37    -0.808947826795E+03   -0.12928E-04   -0.12942E-04  2208   0.139E-03 0.917E-06
CGA:  38    -0.808947833751E+03   -0.69563E-05   -0.70101E-05  2208   0.140E-03-0.607E-05
CGA:  39    -0.808947845438E+03   -0.11687E-04   -0.12712E-04  2208   0.493E-03-0.195E-04
CGA:  40    -0.808947855129E+03   -0.96906E-05   -0.93623E-05  2208   0.239E-03-0.149E-04
   6 F= -.80894786E+03 E0= -.80888064E+03  d E =-.569871E-01  mag=    66.0000
       N       E                     dE             d eps       ncg     rms          ort
SDA:   1    -0.780816577790E+03    0.28131E+02    0.00000E+00  2208   0.152E+03 0.000E+00
CGA:   2    -0.785331806287E+03   -0.45152E+01   -0.44683E+01  2208   0.156E+03-0.182E+01
CGA:   3    -0.796340149322E+03   -0.11008E+02   -0.11371E+02  2208   0.192E+03-0.146E+02
CGA:   4    -0.799861770352E+03   -0.35216E+01   -0.37122E+01  2208   0.110E+03-0.647E+01
CGA:   5    -0.802429489766E+03   -0.25677E+01   -0.25310E+01  2208   0.501E+02 0.168E+01
CGA:   6    -0.803882531814E+03   -0.14530E+01   -0.14260E+01  2208   0.650E+02-0.175E+00
CGA:   7    -0.805926382805E+03   -0.20439E+01   -0.20574E+01  2208   0.526E+02 0.375E+00
CGA:   8    -0.807352757481E+03   -0.14264E+01   -0.14343E+01  2208   0.339E+02-0.126E-01
CGA:   9    -0.807975032437E+03   -0.62227E+00   -0.56455E+00  2208   0.141E+02 0.235E+01
CGA:  10    -0.808292980986E+03   -0.31795E+00   -0.31555E+00  2208   0.600E+01 0.676E-01
CGA:  11    -0.808420561982E+03   -0.12758E+00   -0.13147E+00  2208   0.534E+01-0.509E-01
CGA:  12    -0.808572227435E+03   -0.15167E+00   -0.15245E+00  2208   0.492E+01 0.223E-01
CGA:  13    -0.808729059286E+03   -0.15683E+00   -0.15756E+00  2208   0.587E+01 0.565E-01
CGA:  14    -0.808893749529E+03   -0.16469E+00   -0.16961E+00  2208   0.132E+01 0.162E+00
CGA:  15    -0.808919572370E+03   -0.25823E-01   -0.25783E-01  2208   0.808E+00 0.102E-02
CGA:  16    -0.808943876863E+03   -0.24304E-01   -0.24342E-01  2208   0.465E+00 0.280E-02
CGA:  17    -0.808972310950E+03   -0.28434E-01   -0.27737E-01  2208   0.732E+00 0.249E-01
CGA:  18    -0.808990809615E+03   -0.18499E-01   -0.18526E-01  2208   0.579E+00 0.127E-03
CGA:  19    -0.809014026286E+03   -0.23217E-01   -0.23098E-01  2208   0.193E+00 0.162E-01
CGA:  20    -0.809020824773E+03   -0.67985E-02   -0.68027E-02  2208   0.143E+00 0.151E-02
CGA:  21    -0.809024308163E+03   -0.34834E-02   -0.34832E-02  2208   0.116E+00-0.922E-05
CGA:  22    -0.809032279765E+03   -0.79716E-02   -0.78976E-02  2208   0.134E+00 0.211E-02
CGA:  23    -0.809038650730E+03   -0.63710E-02   -0.63376E-02  2208   0.163E+00 0.250E-02
CGA:  24    -0.809042291658E+03   -0.36409E-02   -0.36462E-02  2208   0.568E-01-0.257E-04
CGA:  25    -0.809044763845E+03   -0.24722E-02   -0.24713E-02  2208   0.581E-01 0.865E-04
CGA:  26    -0.809046652473E+03   -0.18886E-02   -0.18906E-02  2208   0.369E-01 0.194E-03
CGA:  27    -0.809049414527E+03   -0.27621E-02   -0.27543E-02  2208   0.598E-01 0.197E-03
CGA:  28    -0.809051305668E+03   -0.18911E-02   -0.18930E-02  2208   0.429E-01 0.107E-03
CGA:  29    -0.809052335660E+03   -0.10300E-02   -0.10311E-02  2208   0.147E-01 0.186E-05
CGA:  30    -0.809053176818E+03   -0.84116E-03   -0.84056E-03  2208   0.149E-01 0.180E-04
CGA:  31    -0.809054181567E+03   -0.10047E-02   -0.10046E-02  2208   0.202E-01 0.329E-05
SDA:  32    -0.809054824417E+03   -0.64285E-03   -0.64282E-03  2208   0.166E-01-0.184E-04
CGA:  33    -0.809055085294E+03   -0.26088E-03   -0.26135E-03  2208   0.510E-02-0.152E-04
CGA:  34    -0.809055329079E+03   -0.24378E-03   -0.24365E-03  2208   0.475E-02 0.122E-04
CGA:  35    -0.809055623051E+03   -0.29397E-03   -0.29355E-03  2208   0.593E-02 0.163E-04
CGA:  36    -0.809056049354E+03   -0.42630E-03   -0.42545E-03  2208   0.568E-02 0.256E-04
CGA:  37    -0.809056265115E+03   -0.21576E-03   -0.21575E-03  2208   0.386E-02-0.118E-05
CGA:  38    -0.809056397273E+03   -0.13216E-03   -0.13207E-03  2208   0.208E-02-0.107E-04
CGA:  39    -0.809056561579E+03   -0.16431E-03   -0.16524E-03  2208   0.392E-02-0.248E-04
CGA:  40    -0.809056668078E+03   -0.10650E-03   -0.10625E-03  2208   0.289E-02-0.179E-04
CGA:  41    -0.809056792896E+03   -0.12482E-03   -0.12484E-03  2208   0.149E-02-0.202E-04
CGA:  42    -0.809056874299E+03   -0.81404E-04   -0.81489E-04  2208   0.104E-02-0.758E-05
CGA:  43    -0.809056967077E+03   -0.92778E-04   -0.92632E-04  2208   0.157E-02 0.241E-05
CGA:  44    -0.809057032869E+03   -0.65792E-04   -0.65808E-04  2208   0.147E-02 0.366E-05
CGA:  45    -0.809057077678E+03   -0.44809E-04   -0.44829E-04  2208   0.600E-03 0.816E-06
CGA:  46    -0.809057100243E+03   -0.22565E-04   -0.22565E-04  2208   0.763E-03-0.674E-06
CGA:  47    -0.809057131806E+03   -0.31563E-04   -0.31560E-04  2208   0.664E-03-0.196E-05
CGA:  48    -0.809057178193E+03   -0.46388E-04   -0.46498E-04  2208   0.518E-03-0.497E-05
CGA:  49    -0.809057205937E+03   -0.27743E-04   -0.27753E-04  2208   0.322E-03-0.168E-05
CGA:  50    -0.809057219649E+03   -0.13712E-04   -0.13718E-04  2208   0.230E-03 0.134E-05
CGA:  51    -0.809057237618E+03   -0.17969E-04   -0.17757E-04  2208   0.450E-03 0.609E-05
CGA:  52    -0.809057252026E+03   -0.14408E-04   -0.14499E-04  2208   0.309E-03 0.522E-05
CGA:  53    -0.809057263405E+03   -0.11379E-04   -0.11428E-04  2208   0.188E-03 0.459E-05
CGA:  54    -0.809057268576E+03   -0.51715E-05   -0.52030E-05  2208   0.111E-03 0.127E-05
   7 F= -.80905727E+03 E0= -.80900102E+03  d E =-.109413E+00  mag=    66.0000
       N       E                     dE             d eps       ncg     rms          ort
SDA:   1    -0.801445423286E+03    0.76118E+01    0.00000E+00  2208   0.509E+02 0.000E+00
CGA:   2    -0.802599999293E+03   -0.11546E+01   -0.11510E+01  2208   0.427E+02-0.426E+00
CGA:   3    -0.805864115386E+03   -0.32641E+01   -0.33180E+01  2208   0.416E+02-0.164E+01
CGA:   4    -0.806963391742E+03   -0.10993E+01   -0.11099E+01  2208   0.148E+02-0.558E-01
CGA:   5    -0.807494719753E+03   -0.53133E+00   -0.53475E+00  2208   0.115E+02 0.115E+00
CGA:   6    -0.808149106795E+03   -0.65439E+00   -0.65544E+00  2208   0.143E+02-0.603E-01
CGA:   7    -0.808656043160E+03   -0.50694E+00   -0.50717E+00  2208   0.670E+01 0.129E-01
CGA:   8    -0.808790606817E+03   -0.13456E+00   -0.13632E+00  2208   0.248E+01-0.523E-01
CGA:   9    -0.808879050786E+03   -0.88444E-01   -0.88524E-01  2208   0.107E+01 0.298E-02
CGA:  10    -0.808953182336E+03   -0.74132E-01   -0.73768E-01  2208   0.141E+01 0.123E-01
CGA:  11    -0.808997394811E+03   -0.44212E-01   -0.44434E-01  2208   0.105E+01 0.129E-02
CGA:  12    -0.809024552879E+03   -0.27158E-01   -0.27448E-01  2208   0.264E+00-0.266E-02
CGA:  13    -0.809036149875E+03   -0.11597E-01   -0.11595E-01  2208   0.154E+00 0.148E-02
CGA:  14    -0.809041460939E+03   -0.53111E-02   -0.53241E-02  2208   0.139E+00 0.396E-03
CGA:  15    -0.809048255255E+03   -0.67943E-02   -0.67944E-02  2208   0.161E+00-0.100E-03
CGA:  16    -0.809054005476E+03   -0.57502E-02   -0.57689E-02  2208   0.883E-01 0.850E-03
CGA:  17    -0.809056978460E+03   -0.29730E-02   -0.29774E-02  2208   0.466E-01 0.123E-03
CGA:  18    -0.809058523864E+03   -0.15454E-02   -0.15480E-02  2208   0.272E-01 0.647E-04
CGA:  19    -0.809060158306E+03   -0.16344E-02   -0.16332E-02  2208   0.420E-01 0.436E-04
CGA:  20    -0.809061803660E+03   -0.16454E-02   -0.16466E-02  2208   0.457E-01 0.149E-03
CGA:  21    -0.809063785904E+03   -0.19822E-02   -0.19822E-02  2208   0.165E-01 0.420E-04
CGA:  22    -0.809064603793E+03   -0.81789E-03   -0.81756E-03  2208   0.170E-01 0.292E-04
CGA:  23    -0.809065123438E+03   -0.51965E-03   -0.51981E-03  2208   0.132E-01-0.205E-05
CGA:  24    -0.809065982581E+03   -0.85914E-03   -0.85780E-03  2208   0.155E-01 0.528E-04
CGA:  25    -0.809066679688E+03   -0.69711E-03   -0.69704E-03  2208   0.111E-01 0.312E-04
CGA:  26    -0.809067021216E+03   -0.34153E-03   -0.34204E-03  2208   0.582E-02 0.748E-05
CGA:  27    -0.809067228059E+03   -0.20684E-03   -0.20696E-03  2208   0.418E-02 0.926E-05
CGA:  28    -0.809067487059E+03   -0.25900E-03   -0.25849E-03  2208   0.662E-02 0.252E-04
CGA:  29    -0.809067729500E+03   -0.24244E-03   -0.24260E-03  2208   0.325E-02 0.201E-04
CGA:  30    -0.809067867171E+03   -0.13767E-03   -0.13768E-03  2208   0.254E-02 0.826E-05
CGA:  31    -0.809067958739E+03   -0.91568E-04   -0.91594E-04  2208   0.184E-02 0.206E-05
SDA:  32    -0.809068029050E+03   -0.70311E-04   -0.70307E-04  2208   0.165E-02-0.266E-05
CGA:  33    -0.809068068321E+03   -0.39272E-04   -0.39246E-04  2208   0.957E-03-0.314E-05
CGA:  34    -0.809068109405E+03   -0.41084E-04   -0.41091E-04  2208   0.106E-02-0.610E-05
CGA:  35    -0.809068171142E+03   -0.61737E-04   -0.61922E-04  2208   0.119E-02-0.118E-04
CGA:  36    -0.809068236903E+03   -0.65761E-04   -0.65917E-04  2208   0.125E-02-0.126E-04
CGA:  37    -0.809068278259E+03   -0.41356E-04   -0.41293E-04  2208   0.535E-03-0.731E-05
CGA:  38    -0.809068309805E+03   -0.31546E-04   -0.31599E-04  2208   0.459E-03-0.404E-05
CGA:  39    -0.809068341656E+03   -0.31850E-04   -0.31880E-04  2208   0.572E-03-0.181E-05
CGA:  40    -0.809068374332E+03   -0.32676E-04   -0.32667E-04  2208   0.756E-03 0.141E-06
CGA:  41    -0.809068394216E+03   -0.19884E-04   -0.19914E-04  2208   0.381E-03 0.491E-06
CGA:  42    -0.809068410708E+03   -0.16492E-04   -0.16495E-04  2208   0.148E-03 0.196E-05
CGA:  43    -0.809068424669E+03   -0.13961E-04   -0.13715E-04  2208   0.188E-03 0.457E-05
CGA:  44    -0.809068441599E+03   -0.16930E-04   -0.16701E-04  2208   0.114E-03 0.537E-05
CGA:  45    -0.809068448599E+03   -0.70004E-05   -0.69888E-05  2208   0.109E-03 0.602E-06
   8 F= -.80906845E+03 E0= -.80901575E+03  d E =-.111800E-01  mag=    66.0000
       N       E                     dE             d eps       ncg     rms          ort
SDA:   1    -0.808595313921E+03    0.47313E+00    0.00000E+00  2208   0.321E+01 0.000E+00
CGA:   2    -0.808677769851E+03   -0.82456E-01   -0.82957E-01  2208   0.305E+01-0.663E-02
CGA:   3    -0.808888573511E+03   -0.21080E+00   -0.21093E+00  2208   0.193E+01-0.448E-02
CGA:   4    -0.808942469716E+03   -0.53896E-01   -0.54061E-01  2208   0.829E+00-0.186E-02
CGA:   5    -0.808976698094E+03   -0.34228E-01   -0.34235E-01  2208   0.776E+00 0.531E-03
CGA:   6    -0.809040576196E+03   -0.63878E-01   -0.63689E-01  2208   0.685E+00 0.497E-02
CGA:   7    -0.809056474948E+03   -0.15899E-01   -0.15802E-01  2208   0.253E+00 0.238E-02
CGA:   8    -0.809063839101E+03   -0.73642E-02   -0.73424E-02  2208   0.848E-01 0.171E-03
CGA:   9    -0.809069247866E+03   -0.54088E-02   -0.54076E-02  2208   0.960E-01 0.578E-04
CGA:  10    -0.809073906784E+03   -0.46589E-02   -0.46588E-02  2208   0.606E-01 0.442E-04
CGA:  11    -0.809075541022E+03   -0.16342E-02   -0.16344E-02  2208   0.304E-01-0.104E-05
CGA:  12    -0.809076450573E+03   -0.90955E-03   -0.90973E-03  2208   0.917E-02-0.271E-05
CGA:  13    -0.809076975467E+03   -0.52489E-03   -0.52491E-03  2208   0.134E-01 0.493E-06
CGA:  14    -0.809077485038E+03   -0.50957E-03   -0.50962E-03  2208   0.781E-02 0.484E-05
CGA:  15    -0.809077916707E+03   -0.43167E-03   -0.43161E-03  2208   0.525E-02 0.452E-05
CGA:  16    -0.809078042477E+03   -0.12577E-03   -0.12580E-03  2208   0.269E-02-0.461E-06
CGA:  17    -0.809078169091E+03   -0.12661E-03   -0.12661E-03  2208   0.174E-02 0.517E-06
CGA:  18    -0.809078306485E+03   -0.13739E-03   -0.13741E-03  2208   0.236E-02-0.747E-06
CGA:  19    -0.809078407089E+03   -0.10060E-03   -0.10060E-03  2208   0.249E-02-0.181E-05
CGA:  20    -0.809078487234E+03   -0.80145E-04   -0.80148E-04  2208   0.112E-02-0.142E-05
CGA:  21    -0.809078533280E+03   -0.46046E-04   -0.46054E-04  2208   0.870E-03 0.125E-05
CGA:  22    -0.809078570813E+03   -0.37533E-04   -0.37540E-04  2208   0.868E-03 0.225E-05
CGA:  23    -0.809078629668E+03   -0.58854E-04   -0.58728E-04  2208   0.103E-02 0.532E-05
CGA:  24    -0.809078667398E+03   -0.37731E-04   -0.37769E-04  2208   0.495E-03 0.311E-05
CGA:  25    -0.809078681692E+03   -0.14294E-04   -0.14306E-04  2208   0.350E-03 0.327E-06
CGA:  26    -0.809078698891E+03   -0.17199E-04   -0.17201E-04  2208   0.239E-03-0.978E-06
CGA:  27    -0.809078721023E+03   -0.22132E-04   -0.22276E-04  2208   0.349E-03-0.338E-05
CGA:  28    -0.809078730391E+03   -0.93682E-05   -0.93462E-05  2208   0.185E-03-0.139E-05
   9 F= -.80907873E+03 E0= -.80902685E+03  d E =-.102818E-01  mag=    66.0000
       N       E                     dE             d eps       ncg     rms          ort
SDA:   1    -0.806272977908E+03    0.28057E+01    0.00000E+00  2208   0.116E+02 0.000E+00
CGA:   2    -0.807078874038E+03   -0.80590E+00   -0.80724E+00  2208   0.304E+02-0.442E-01
CGA:   3    -0.808142607723E+03   -0.10637E+01   -0.10647E+01  2208   0.862E+01 0.291E-01
CGA:   4    -0.808384231232E+03   -0.24162E+00   -0.24568E+00  2208   0.429E+01-0.407E-01
CGA:   5    -0.808576706233E+03   -0.19248E+00   -0.19241E+00  2208   0.483E+01-0.318E-01
CGA:   6    -0.808888780108E+03   -0.31207E+00   -0.31152E+00  2208   0.196E+01 0.224E-01
CGA:   7    -0.808966741374E+03   -0.77961E-01   -0.77914E-01  2208   0.844E+00-0.206E-02
CGA:   8    -0.808994338195E+03   -0.27597E-01   -0.27532E-01  2208   0.788E+00-0.231E-03
CGA:   9    -0.809026641669E+03   -0.32303E-01   -0.32259E-01  2208   0.481E+00-0.319E-02
CGA:  10    -0.809054026106E+03   -0.27384E-01   -0.27343E-01  2208   0.237E+00 0.260E-02
CGA:  11    -0.809062417258E+03   -0.83912E-02   -0.83845E-02  2208   0.102E+00-0.921E-04
CGA:  12    -0.809065776306E+03   -0.33590E-02   -0.33592E-02  2208   0.526E-01 0.248E-04
CGA:  13    -0.809069793376E+03   -0.40171E-02   -0.40065E-02  2208   0.532E-01 0.315E-03
CGA:  14    -0.809073067113E+03   -0.32737E-02   -0.32731E-02  2208   0.494E-01 0.484E-04
CGA:  15    -0.809074425464E+03   -0.13584E-02   -0.13598E-02  2208   0.208E-01-0.314E-05
CGA:  16    -0.809075072657E+03   -0.64719E-03   -0.64702E-03  2208   0.139E-01 0.120E-04
CGA:  17    -0.809076446441E+03   -0.13738E-02   -0.13709E-02  2208   0.179E-01 0.549E-04
CGA:  18    -0.809077357010E+03   -0.91057E-03   -0.91048E-03  2208   0.204E-01 0.193E-04
CGA:  19    -0.809078123020E+03   -0.76601E-03   -0.76612E-03  2208   0.647E-02 0.252E-05
CGA:  20    -0.809078643698E+03   -0.52068E-03   -0.51994E-03  2208   0.827E-02 0.209E-04
CGA:  21    -0.809079217416E+03   -0.57372E-03   -0.57352E-03  2208   0.122E-01 0.898E-05
CGA:  22    -0.809079565147E+03   -0.34773E-03   -0.34798E-03  2208   0.685E-02 0.382E-05
CGA:  23    -0.809079879619E+03   -0.31447E-03   -0.31453E-03  2208   0.313E-02 0.128E-04
CGA:  24    -0.809080034591E+03   -0.15497E-03   -0.15497E-03  2208   0.319E-02 0.533E-05
CGA:  25    -0.809080181289E+03   -0.14670E-03   -0.14672E-03  2208   0.261E-02 0.422E-05
CGA:  26    -0.809080348093E+03   -0.16680E-03   -0.16674E-03  2208   0.175E-02 0.461E-05
CGA:  27    -0.809080439081E+03   -0.90989E-04   -0.90985E-04  2208   0.700E-03 0.136E-05
CGA:  28    -0.809080488711E+03   -0.49629E-04   -0.49618E-04  2208   0.113E-02 0.291E-06
CGA:  29    -0.809080538219E+03   -0.49508E-04   -0.49509E-04  2208   0.112E-02-0.264E-06
CGA:  30    -0.809080592393E+03   -0.54173E-04   -0.54173E-04  2208   0.713E-03-0.566E-06
CGA:  31    -0.809080611968E+03   -0.19575E-04   -0.19571E-04  2208   0.400E-03-0.281E-06
SDA:  32    -0.809080633631E+03   -0.21663E-04   -0.21664E-04  2208   0.302E-03-0.271E-06
CGA:  33    -0.809080644287E+03   -0.10656E-04   -0.10654E-04  2208   0.191E-03-0.256E-06
CGA:  34    -0.809080654862E+03   -0.10575E-04   -0.10576E-04  2208   0.313E-03-0.283E-06
CGA:  35    -0.809080671020E+03   -0.16158E-04   -0.16158E-04  2208   0.305E-03-0.492E-06
CGA:  36    -0.809080682969E+03   -0.11949E-04   -0.11947E-04  2208   0.204E-03-0.400E-06
CGA:  37    -0.809080689154E+03   -0.61848E-05   -0.61792E-05  2208   0.733E-04-0.498E-06
  10 F= -.80908069E+03 E0= -.80903209E+03  d E =-.195876E-02  mag=    66.0000
       N       E                     dE             d eps       ncg     rms          ort
SDA:   1    -0.788677707973E+03    0.20403E+02    0.00000E+00  2208   0.981E+02 0.000E+00
CGA:   2    -0.792976523170E+03   -0.42988E+01   -0.42943E+01  2208   0.167E+03-0.489E+00
CGA:   3    -0.801898296113E+03   -0.89218E+01   -0.89751E+01  2208   0.782E+02-0.679E+01
CGA:   4    -0.804354303501E+03   -0.24560E+01   -0.24261E+01  2208   0.258E+02 0.545E+00
CGA:   5    -0.805383602865E+03   -0.10293E+01   -0.10204E+01  2208   0.351E+02-0.307E+00
CGA:   6    -0.806980084161E+03   -0.15965E+01   -0.15942E+01  2208   0.410E+02-0.658E+00
CGA:   7    -0.807934046051E+03   -0.95396E+00   -0.97128E+00  2208   0.130E+02-0.361E+00
CGA:   8    -0.808301495220E+03   -0.36745E+00   -0.34001E+00  2208   0.372E+01 0.396E+00
CGA:   9    -0.808583831885E+03   -0.28234E+00   -0.28012E+00  2208   0.492E+01 0.631E-01
CGA:  10    -0.808709703896E+03   -0.12587E+00   -0.13432E+00  2208   0.384E+01-0.820E-01
CGA:  11    -0.808868521170E+03   -0.15882E+00   -0.15898E+00  2208   0.163E+01 0.198E-01
CGA:  12    -0.808922907506E+03   -0.54386E-01   -0.54839E-01  2208   0.712E+00 0.609E-02
CGA:  13    -0.808946843814E+03   -0.23936E-01   -0.23951E-01  2208   0.389E+00 0.310E-03
CGA:  14    -0.808969062324E+03   -0.22219E-01   -0.21874E-01  2208   0.450E+00 0.204E-01
CGA:  15    -0.808989037711E+03   -0.19975E-01   -0.19968E-01  2208   0.456E+00-0.108E-02
CGA:  16    -0.809008241041E+03   -0.19203E-01   -0.19267E-01  2208   0.154E+00 0.113E-01
CGA:  17    -0.809016482543E+03   -0.82415E-02   -0.82372E-02  2208   0.958E-01 0.360E-03
CGA:  18    -0.809022010937E+03   -0.55284E-02   -0.55081E-02  2208   0.119E+00 0.125E-02
CGA:  19    -0.809028633115E+03   -0.66222E-02   -0.66227E-02  2208   0.132E+00 0.219E-03
CGA:  20    -0.809035640066E+03   -0.70070E-02   -0.69793E-02  2208   0.974E-01 0.257E-02
CGA:  21    -0.809039425583E+03   -0.37855E-02   -0.37853E-02  2208   0.529E-01 0.253E-05
CGA:  22    -0.809041708814E+03   -0.22832E-02   -0.22838E-02  2208   0.439E-01 0.895E-04
CGA:  23    -0.809045210781E+03   -0.35020E-02   -0.34905E-02  2208   0.422E-01 0.313E-03
CGA:  24    -0.809048020545E+03   -0.28098E-02   -0.28082E-02  2208   0.398E-01 0.676E-04
CGA:  25    -0.809049402935E+03   -0.13824E-02   -0.13834E-02  2208   0.196E-01 0.179E-04
CGA:  26    -0.809050242669E+03   -0.83973E-03   -0.84002E-03  2208   0.126E-01 0.310E-04
CGA:  27    -0.809051259942E+03   -0.10173E-02   -0.10152E-02  2208   0.194E-01 0.580E-04
CGA:  28    -0.809052090836E+03   -0.83089E-03   -0.83096E-03  2208   0.112E-01 0.165E-04
CGA:  29    -0.809052625715E+03   -0.53488E-03   -0.53490E-03  2208   0.465E-02 0.167E-04
CGA:  30    -0.809052932408E+03   -0.30669E-03   -0.30681E-03  2208   0.732E-02-0.550E-05
CGA:  31    -0.809053295835E+03   -0.36343E-03   -0.36343E-03  2208   0.661E-02-0.209E-05
SDA:  32    -0.809053625186E+03   -0.32935E-03   -0.32935E-03  2208   0.341E-02-0.329E-06
CGA:  33    -0.809053728801E+03   -0.10362E-03   -0.10356E-03  2208   0.184E-02 0.164E-06
CGA:  34    -0.809053819025E+03   -0.90224E-04   -0.90224E-04  2208   0.172E-02-0.871E-06
CGA:  35    -0.809053924037E+03   -0.10501E-03   -0.10498E-03  2208   0.193E-02 0.167E-05
CGA:  36    -0.809054041258E+03   -0.11722E-03   -0.11722E-03  2208   0.162E-02-0.557E-06
CGA:  37    -0.809054103154E+03   -0.61896E-04   -0.61885E-04  2208   0.832E-03-0.115E-05
CGA:  38    -0.809054145145E+03   -0.41991E-04   -0.41993E-04  2208   0.499E-03-0.266E-05
CGA:  39    -0.809054198938E+03   -0.53793E-04   -0.54063E-04  2208   0.788E-03-0.506E-05
CGA:  40    -0.809054264333E+03   -0.65396E-04   -0.65508E-04  2208   0.481E-03-0.405E-05
CGA:  41    -0.809054287841E+03   -0.23507E-04   -0.23507E-04  2208   0.560E-03-0.825E-09
CGA:  42    -0.809054308046E+03   -0.20205E-04   -0.20236E-04  2208   0.248E-03 0.188E-05
CGA:  43    -0.809054335633E+03   -0.27587E-04   -0.27235E-04  2208   0.283E-03 0.593E-05
CGA:  44    -0.809054353393E+03   -0.17760E-04   -0.17736E-04  2208   0.191E-03 0.405E-05
CGA:  45    -0.809054362436E+03   -0.90433E-05   -0.90608E-05  2208   0.177E-03 0.165E-05
  11 F= -.80905436E+03 E0= -.80901384E+03  d E =0.263267E-01  mag=    66.0000
       N       E                     dE             d eps       ncg     rms          ort
SDA:   1    -0.776933507152E+03    0.32121E+02    0.00000E+00  2208   0.127E+03 0.000E+00
CGA:   2    -0.787559395974E+03   -0.10626E+02   -0.11431E+02  2208   0.428E+03-0.207E+02
CGA:   3    -0.796853231686E+03   -0.92938E+01   -0.87769E+01  2208   0.166E+03 0.180E+02
CGA:   4    -0.800270797375E+03   -0.34176E+01   -0.30442E+01  2208   0.662E+02 0.216E+02
CGA:   5    -0.802482901008E+03   -0.22121E+01   -0.22748E+01  2208   0.398E+02 0.127E+01
CGA:   6    -0.804280918768E+03   -0.17980E+01   -0.18012E+01  2208   0.687E+02 0.159E+00
CGA:   7    -0.806563935986E+03   -0.22830E+01   -0.21232E+01  2208   0.394E+02 0.243E+01
CGA:   8    -0.807459878512E+03   -0.89594E+00   -0.86917E+00  2208   0.154E+02 0.932E+00
CGA:   9    -0.807831434625E+03   -0.37156E+00   -0.38006E+00  2208   0.103E+02-0.250E+00
CGA:  10    -0.808085789418E+03   -0.25435E+00   -0.25519E+00  2208   0.682E+01-0.569E-02
CGA:  11    -0.808341879293E+03   -0.25609E+00   -0.25534E+00  2208   0.827E+01-0.197E-01
CGA:  12    -0.808568061728E+03   -0.22618E+00   -0.23633E+00  2208   0.479E+01-0.483E-01
CGA:  13    -0.808732162331E+03   -0.16410E+00   -0.16637E+00  2208   0.209E+01 0.444E-01
CGA:  14    -0.808780342316E+03   -0.48180E-01   -0.47553E-01  2208   0.926E+00 0.160E-01
CGA:  15    -0.808810091160E+03   -0.29749E-01   -0.29714E-01  2208   0.576E+00-0.303E-03
CGA:  16    -0.808843047497E+03   -0.32956E-01   -0.32494E-01  2208   0.916E+00 0.255E-01
CGA:  17    -0.808873863624E+03   -0.30816E-01   -0.31236E-01  2208   0.636E+00 0.586E-02
CGA:  18    -0.808902588866E+03   -0.28725E-01   -0.28719E-01  2208   0.234E+00 0.219E-02
CGA:  19    -0.808912558546E+03   -0.99697E-02   -0.99728E-02  2208   0.236E+00 0.147E-02
CGA:  20    -0.808920577113E+03   -0.80186E-02   -0.80372E-02  2208   0.162E+00 0.518E-03
CGA:  21    -0.808933774180E+03   -0.13197E-01   -0.13066E-01  2208   0.184E+00 0.329E-02
CGA:  22    -0.808942481668E+03   -0.87075E-02   -0.87047E-02  2208   0.199E+00 0.114E-02
CGA:  23    -0.808949115893E+03   -0.66342E-02   -0.66598E-02  2208   0.862E-01 0.385E-03
CGA:  24    -0.808954566167E+03   -0.54503E-02   -0.54400E-02  2208   0.692E-01 0.433E-03
CGA:  25    -0.808958430414E+03   -0.38642E-02   -0.38628E-02  2208   0.104E+00 0.107E-03
CGA:  26    -0.808962541198E+03   -0.41108E-02   -0.41154E-02  2208   0.579E-01 0.254E-03
CGA:  27    -0.808965981795E+03   -0.34406E-02   -0.34340E-02  2208   0.315E-01 0.355E-03
CGA:  28    -0.808967550154E+03   -0.15684E-02   -0.15684E-02  2208   0.377E-01 0.794E-06
CGA:  29    -0.808969029036E+03   -0.14789E-02   -0.14794E-02  2208   0.225E-01 0.368E-04
CGA:  30    -0.808970625450E+03   -0.15964E-02   -0.15937E-02  2208   0.226E-01 0.955E-04
CGA:  31    -0.808971636382E+03   -0.10109E-02   -0.10109E-02  2208   0.119E-01-0.818E-06
SDA:  32    -0.808972116992E+03   -0.48061E-03   -0.48060E-03  2208   0.117E-01 0.316E-05
CGA:  33    -0.808972403105E+03   -0.28611E-03   -0.28593E-03  2208   0.484E-02-0.330E-07
CGA:  34    -0.808972750644E+03   -0.34754E-03   -0.34755E-03  2208   0.771E-02-0.137E-05
CGA:  35    -0.808973313892E+03   -0.56325E-03   -0.56388E-03  2208   0.587E-02-0.234E-04
CGA:  36    -0.808973652135E+03   -0.33824E-03   -0.33828E-03  2208   0.270E-02-0.378E-05
CGA:  37    -0.808973862070E+03   -0.20994E-03   -0.21013E-03  2208   0.279E-02-0.605E-05
CGA:  38    -0.808974063665E+03   -0.20159E-03   -0.20157E-03  2208   0.449E-02 0.125E-05
CGA:  39    -0.808974234205E+03   -0.17054E-03   -0.17052E-03  2208   0.211E-02 0.867E-06
CGA:  40    -0.808974349510E+03   -0.11531E-03   -0.11529E-03  2208   0.123E-02 0.314E-05
CGA:  41    -0.808974442664E+03   -0.93154E-04   -0.93060E-04  2208   0.154E-02 0.359E-05
CGA:  42    -0.808974527481E+03   -0.84817E-04   -0.84813E-04  2208   0.138E-02 0.154E-05
CGA:  43    -0.808974617413E+03   -0.89932E-04   -0.89916E-04  2208   0.771E-03 0.991E-06
CGA:  44    -0.808974657267E+03   -0.39854E-04   -0.39856E-04  2208   0.731E-03 0.132E-05
CGA:  45    -0.808974683611E+03   -0.26344E-04   -0.26353E-04  2208   0.448E-03 0.107E-07
CGA:  46    -0.808974745284E+03   -0.61673E-04   -0.61611E-04  2208   0.570E-03 0.623E-06
CGA:  47    -0.808974795389E+03   -0.50105E-04   -0.49988E-04  2208   0.205E-03 0.359E-05
CGA:  48    -0.808974809233E+03   -0.13844E-04   -0.13798E-04  2208   0.360E-03 0.475E-05
CGA:  49    -0.808974825432E+03   -0.16199E-04   -0.16302E-04  2208   0.248E-03 0.699E-05
CGA:  50    -0.808974846151E+03   -0.20718E-04   -0.20469E-04  2208   0.244E-03 0.104E-04
CGA:  51    -0.808974857742E+03   -0.11591E-04   -0.11655E-04  2208   0.152E-03 0.470E-05
CGA:  52    -0.808974865191E+03   -0.74493E-05   -0.74704E-05  2208   0.754E-04 0.194E-05
  12 F= -.80897487E+03 E0= -.80893959E+03  d E =0.794972E-01  mag=    66.0000
       N       E                     dE             d eps       ncg     rms          ort
SDA:   1    -0.803003913818E+03    0.59709E+01    0.00000E+00  2208   0.413E+02 0.000E+00
CGA:   2    -0.804341553743E+03   -0.13376E+01   -0.14033E+01  2208   0.336E+02-0.952E+00
CGA:   3    -0.806328309919E+03   -0.19868E+01   -0.19840E+01  2208   0.238E+02 0.536E+00
CGA:   4    -0.807338929474E+03   -0.10106E+01   -0.98685E+00  2208   0.133E+02-0.107E+00
CGA:   5    -0.807836175135E+03   -0.49725E+00   -0.48938E+00  2208   0.713E+01 0.497E-02
CGA:   6    -0.808443019553E+03   -0.60684E+00   -0.60642E+00  2208   0.865E+01 0.146E-01
CGA:   7    -0.808723467761E+03   -0.28045E+00   -0.28435E+00  2208   0.324E+01-0.462E-01
CGA:   8    -0.808843362089E+03   -0.11989E+00   -0.12128E+00  2208   0.792E+00 0.803E-02
CGA:   9    -0.808890438745E+03   -0.47077E-01   -0.47061E-01  2208   0.101E+01 0.232E-02
CGA:  10    -0.808932106782E+03   -0.41668E-01   -0.41571E-01  2208   0.570E+00-0.765E-03
CGA:  11    -0.808959615256E+03   -0.27508E-01   -0.27534E-01  2208   0.248E+00 0.167E-02
CGA:  12    -0.808968205829E+03   -0.85906E-02   -0.86097E-02  2208   0.104E+00 0.144E-03
CGA:  13    -0.808973249616E+03   -0.50438E-02   -0.50469E-02  2208   0.868E-01 0.264E-03
CGA:  14    -0.808979401424E+03   -0.61518E-02   -0.61521E-02  2208   0.837E-01-0.536E-04
CGA:  15    -0.808982328664E+03   -0.29272E-02   -0.29438E-02  2208   0.450E-01-0.131E-06
CGA:  16    -0.808984371757E+03   -0.20431E-02   -0.20472E-02  2208   0.175E-01 0.198E-03
CGA:  17    -0.808985515225E+03   -0.11435E-02   -0.11427E-02  2208   0.233E-01 0.450E-04
CGA:  18    -0.808986944241E+03   -0.14290E-02   -0.14284E-02  2208   0.227E-01 0.608E-04
CGA:  19    -0.808988013741E+03   -0.10695E-02   -0.10705E-02  2208   0.150E-01 0.610E-04
CGA:  20    -0.808988650292E+03   -0.63655E-03   -0.63707E-03  2208   0.771E-02 0.162E-04
CGA:  21    -0.808989136716E+03   -0.48642E-03   -0.48631E-03  2208   0.102E-01 0.796E-05
CGA:  22    -0.808989705362E+03   -0.56865E-03   -0.56857E-03  2208   0.704E-02 0.150E-04
CGA:  23    -0.808990147402E+03   -0.44204E-03   -0.44191E-03  2208   0.511E-02 0.809E-05
CGA:  24    -0.808990329595E+03   -0.18219E-03   -0.18224E-03  2208   0.316E-02 0.420E-06
CGA:  25    -0.808990521651E+03   -0.19206E-03   -0.19200E-03  2208   0.209E-02 0.589E-05
CGA:  26    -0.808990690123E+03   -0.16847E-03   -0.16837E-03  2208   0.302E-02 0.281E-05
CGA:  27    -0.808990802182E+03   -0.11206E-03   -0.11211E-03  2208   0.119E-02 0.624E-06
CGA:  28    -0.808990877119E+03   -0.74937E-04   -0.74947E-04  2208   0.106E-02-0.142E-05
CGA:  29    -0.808990923661E+03   -0.46542E-04   -0.46541E-04  2208   0.957E-03-0.706E-06
CGA:  30    -0.808990994665E+03   -0.71004E-04   -0.71045E-04  2208   0.729E-03-0.251E-05
CGA:  31    -0.808991037718E+03   -0.43053E-04   -0.43058E-04  2208   0.618E-03-0.134E-05
SDA:  32    -0.808991061966E+03   -0.24248E-04   -0.24243E-04  2208   0.390E-03-0.489E-06
CGA:  33    -0.808991072543E+03   -0.10576E-04   -0.10592E-04  2208   0.199E-03 0.133E-06
CGA:  34    -0.808991086384E+03   -0.13841E-04   -0.13830E-04  2208   0.326E-03 0.486E-06
CGA:  35    -0.808991112719E+03   -0.26336E-04   -0.26299E-04  2208   0.210E-03 0.110E-05
CGA:  36    -0.808991121563E+03   -0.88442E-05   -0.88415E-05  2208   0.120E-03-0.337E-06
  13 F= -.80899112E+03 E0= -.80895656E+03  d E =-.162564E-01  mag=    66.0000
       N       E                     dE             d eps       ncg     rms          ort
SDA:   1    -0.807099760588E+03    0.18914E+01    0.00000E+00  2208   0.674E+01 0.000E+00
CGA:   2    -0.808025746980E+03   -0.92599E+00   -0.92675E+00  2208   0.137E+02-0.239E-01
CGA:   3    -0.808464679411E+03   -0.43893E+00   -0.43208E+00  2208   0.275E+01 0.127E+00
CGA:   4    -0.808630728549E+03   -0.16605E+00   -0.16624E+00  2208   0.378E+01-0.442E-01
CGA:   5    -0.808806005732E+03   -0.17528E+00   -0.17513E+00  2208   0.280E+01-0.363E-02
CGA:   6    -0.808913813606E+03   -0.10781E+00   -0.10852E+00  2208   0.870E+00 0.213E-02
CGA:   7    -0.808952158070E+03   -0.38344E-01   -0.38282E-01  2208   0.319E+00-0.101E-02
CGA:   8    -0.808979223313E+03   -0.27065E-01   -0.27061E-01  2208   0.336E+00 0.134E-03
CGA:   9    -0.808998181249E+03   -0.18958E-01   -0.18958E-01  2208   0.922E-01-0.129E-03
CGA:  10    -0.809002325660E+03   -0.41444E-02   -0.41465E-02  2208   0.535E-01 0.545E-04
CGA:  11    -0.809004343992E+03   -0.20183E-02   -0.20238E-02  2208   0.429E-01 0.154E-04
CGA:  12    -0.809007110119E+03   -0.27661E-02   -0.27660E-02  2208   0.345E-01 0.193E-04
CGA:  13    -0.809008938030E+03   -0.18279E-02   -0.18279E-02  2208   0.210E-01 0.105E-04
CGA:  14    -0.809009724935E+03   -0.78691E-03   -0.78637E-03  2208   0.744E-02 0.687E-05
CGA:  15    -0.809010515483E+03   -0.79055E-03   -0.78831E-03  2208   0.947E-02 0.436E-04
CGA:  16    -0.809011245736E+03   -0.73025E-03   -0.73026E-03  2208   0.115E-01 0.328E-05
CGA:  17    -0.809011599535E+03   -0.35380E-03   -0.35418E-03  2208   0.578E-02 0.286E-05
CGA:  18    -0.809012008915E+03   -0.40938E-03   -0.40930E-03  2208   0.380E-02 0.505E-05
CGA:  19    -0.809012308897E+03   -0.29998E-03   -0.29979E-03  2208   0.474E-02 0.673E-05
CGA:  20    -0.809012615698E+03   -0.30680E-03   -0.30685E-03  2208   0.345E-02-0.766E-05
CGA:  21    -0.809012830754E+03   -0.21506E-03   -0.21506E-03  2208   0.272E-02-0.165E-05
CGA:  22    -0.809012923287E+03   -0.92533E-04   -0.92509E-04  2208   0.124E-02 0.169E-07
CGA:  23    -0.809012998713E+03   -0.75426E-04   -0.75419E-04  2208   0.165E-02 0.289E-05
CGA:  24    -0.809013087251E+03   -0.88537E-04   -0.88550E-04  2208   0.125E-02 0.304E-05
CGA:  25    -0.809013162391E+03   -0.75140E-04   -0.75136E-04  2208   0.418E-03 0.194E-05
CGA:  26    -0.809013193366E+03   -0.30975E-04   -0.30994E-04  2208   0.422E-03-0.115E-05
CGA:  27    -0.809013219913E+03   -0.26547E-04   -0.26551E-04  2208   0.693E-03-0.131E-05
CGA:  28    -0.809013250809E+03   -0.30896E-04   -0.30854E-04  2208   0.346E-03-0.287E-05
CGA:  29    -0.809013269246E+03   -0.18437E-04   -0.18426E-04  2208   0.135E-03-0.221E-05
CGA:  30    -0.809013280466E+03   -0.11220E-04   -0.11251E-04  2208   0.157E-03-0.118E-05
CGA:  31    -0.809013291857E+03   -0.11391E-04   -0.11402E-04  2208   0.198E-03-0.759E-06
SDA:  32    -0.809013298849E+03   -0.69917E-05   -0.69837E-05  2208   0.980E-04-0.248E-06
  14 F= -.80901330E+03 E0= -.80897774E+03  d E =-.221773E-01  mag=    66.0000
       N       E                     dE             d eps       ncg     rms          ort
SDA:   1    -0.807730360095E+03    0.12829E+01    0.00000E+00  2208   0.540E+01 0.000E+00
CGA:   2    -0.808095586003E+03   -0.36523E+00   -0.36474E+00  2208   0.120E+02 0.339E-01
CGA:   3    -0.808636179087E+03   -0.54059E+00   -0.53642E+00  2208   0.233E+01-0.542E-01
CGA:   4    -0.808746413233E+03   -0.11023E+00   -0.11049E+00  2208   0.138E+01 0.107E-01
CGA:   5    -0.808850885430E+03   -0.10447E+00   -0.10462E+00  2208   0.188E+01-0.570E-02
CGA:   6    -0.808920425880E+03   -0.69540E-01   -0.69720E-01  2208   0.695E+00-0.323E-03
CGA:   7    -0.808947598736E+03   -0.27173E-01   -0.27146E-01  2208   0.335E+00 0.141E-03
CGA:   8    -0.808962004038E+03   -0.14405E-01   -0.14370E-01  2208   0.203E+00-0.521E-03
CGA:   9    -0.808976981409E+03   -0.14977E-01   -0.14981E-01  2208   0.176E+00-0.100E-03
CGA:  10    -0.808983573753E+03   -0.65923E-02   -0.66224E-02  2208   0.635E-01 0.852E-04
CGA:  11    -0.808985546398E+03   -0.19726E-02   -0.19706E-02  2208   0.265E-01 0.403E-04
CGA:  12    -0.808987254586E+03   -0.17082E-02   -0.17082E-02  2208   0.225E-01-0.460E-06
CGA:  13    -0.808988869923E+03   -0.16153E-02   -0.16149E-02  2208   0.249E-01 0.161E-04
CGA:  14    -0.808989915725E+03   -0.10458E-02   -0.10466E-02  2208   0.110E-01 0.135E-04
CGA:  15    -0.808990271078E+03   -0.35535E-03   -0.35498E-03  2208   0.565E-02 0.367E-05
CGA:  16    -0.808990964556E+03   -0.69348E-03   -0.69252E-03  2208   0.770E-02 0.157E-04
CGA:  17    -0.808991452085E+03   -0.48753E-03   -0.48742E-03  2208   0.846E-02 0.136E-04
CGA:  18    -0.808991738456E+03   -0.28637E-03   -0.28684E-03  2208   0.394E-02-0.117E-05
CGA:  19    -0.808992058949E+03   -0.32049E-03   -0.32065E-03  2208   0.341E-02-0.557E-05
CGA:  20    -0.808992292011E+03   -0.23306E-03   -0.23300E-03  2208   0.477E-02 0.375E-05
CGA:  21    -0.808992507394E+03   -0.21538E-03   -0.21540E-03  2208   0.274E-02 0.159E-06
CGA:  22    -0.808992644249E+03   -0.13686E-03   -0.13687E-03  2208   0.190E-02 0.155E-05
CGA:  23    -0.808992726498E+03   -0.82249E-04   -0.82297E-04  2208   0.105E-02 0.265E-05
CGA:  24    -0.808992794194E+03   -0.67697E-04   -0.67663E-04  2208   0.932E-03 0.410E-05
CGA:  25    -0.808992853429E+03   -0.59234E-04   -0.59213E-04  2208   0.108E-02 0.326E-05
CGA:  26    -0.808992893555E+03   -0.40127E-04   -0.40185E-04  2208   0.420E-03 0.221E-05
CGA:  27    -0.808992915659E+03   -0.22103E-04   -0.22104E-04  2208   0.284E-03 0.627E-07
CGA:  28    -0.808992940146E+03   -0.24487E-04   -0.24534E-04  2208   0.430E-03-0.162E-05
CGA:  29    -0.808992959698E+03   -0.19552E-04   -0.19532E-04  2208   0.316E-03-0.168E-05
CGA:  30    -0.808992973186E+03   -0.13489E-04   -0.13481E-04  2208   0.142E-03-0.828E-06
CGA:  31    -0.808992981184E+03   -0.79977E-05   -0.79969E-05  2208   0.114E-03-0.251E-06
  15 F= -.80899298E+03 E0= -.80895772E+03  d E =0.203177E-01  mag=    66.0000
       N       E                     dE             d eps       ncg     rms          ort
SDA:   1    -0.796682964587E+03    0.12310E+02    0.00000E+00  2208   0.580E+02 0.000E+00
CGA:   2    -0.800587520526E+03   -0.39046E+01   -0.39684E+01  2208   0.945E+02-0.408E+01
CGA:   3    -0.804483429055E+03   -0.38959E+01   -0.38493E+01  2208   0.639E+02-0.335E+00
CGA:   4    -0.806090634528E+03   -0.16072E+01   -0.12725E+01  2208   0.137E+02 0.176E+02
CGA:   5    -0.806609048248E+03   -0.51841E+00   -0.47400E+00  2208   0.131E+02 0.104E+01
CGA:   6    -0.807279872095E+03   -0.67082E+00   -0.67136E+00  2208   0.223E+02 0.356E-01
CGA:   7    -0.807970430518E+03   -0.69056E+00   -0.70397E+00  2208   0.170E+02-0.242E-01
CGA:   8    -0.808329751696E+03   -0.35932E+00   -0.35676E+00  2208   0.563E+01 0.149E+00
CGA:   9    -0.808472063234E+03   -0.14231E+00   -0.13630E+00  2208   0.355E+01 0.150E+00
CGA:  10    -0.808564654085E+03   -0.92591E-01   -0.91129E-01  2208   0.239E+01 0.282E-01
CGA:  11    -0.808655185985E+03   -0.90532E-01   -0.90446E-01  2208   0.377E+01-0.123E-02
CGA:  12    -0.808762288120E+03   -0.10710E+00   -0.10815E+00  2208   0.208E+01-0.899E-02
CGA:  13    -0.808808138754E+03   -0.45851E-01   -0.47078E-01  2208   0.108E+01-0.267E-01
CGA:  14    -0.808832719834E+03   -0.24581E-01   -0.24887E-01  2208   0.382E+00-0.603E-02
CGA:  15    -0.808842786053E+03   -0.10066E-01   -0.10042E-01  2208   0.335E+00 0.271E-03
CGA:  16    -0.808856487278E+03   -0.13701E-01   -0.13698E-01  2208   0.372E+00-0.553E-03
CGA:  17    -0.808869047321E+03   -0.12560E-01   -0.12585E-01  2208   0.442E+00 0.660E-03
CGA:  18    -0.808886022607E+03   -0.16975E-01   -0.16997E-01  2208   0.337E+00 0.167E-02
CGA:  19    -0.808893596971E+03   -0.75744E-02   -0.76432E-02  2208   0.120E+00-0.125E-02
CGA:  20    -0.808896856485E+03   -0.32595E-02   -0.32581E-02  2208   0.822E-01 0.565E-05
CGA:  21    -0.808900204891E+03   -0.33484E-02   -0.33484E-02  2208   0.920E-01-0.445E-05
CGA:  22    -0.808903253148E+03   -0.30483E-02   -0.30517E-02  2208   0.872E-01 0.964E-04
CGA:  23    -0.808907573780E+03   -0.43206E-02   -0.43180E-02  2208   0.120E+00 0.182E-03
CGA:  24    -0.808910802719E+03   -0.32289E-02   -0.32361E-02  2208   0.539E-01-0.186E-04
CGA:  25    -0.808912587331E+03   -0.17846E-02   -0.17873E-02  2208   0.433E-01 0.105E-03
CGA:  26    -0.808914014272E+03   -0.14269E-02   -0.14282E-02  2208   0.327E-01 0.511E-04
CGA:  27    -0.808915257524E+03   -0.12433E-02   -0.12434E-02  2208   0.269E-01 0.278E-04
CGA:  28    -0.808916265822E+03   -0.10083E-02   -0.10084E-02  2208   0.314E-01 0.118E-04
CGA:  29    -0.808917697798E+03   -0.14320E-02   -0.14316E-02  2208   0.239E-01 0.467E-04
CGA:  30    -0.808918365408E+03   -0.66761E-03   -0.66879E-03  2208   0.165E-01 0.159E-04
CGA:  31    -0.808919110269E+03   -0.74486E-03   -0.74459E-03  2208   0.131E-01 0.296E-04
SDA:  32    -0.808919530297E+03   -0.42003E-03   -0.42007E-03  2208   0.113E-01 0.487E-05
CGA:  33    -0.808919945889E+03   -0.41559E-03   -0.41560E-03  2208   0.740E-02 0.125E-05
CGA:  34    -0.808920312663E+03   -0.36677E-03   -0.36681E-03  2208   0.558E-02-0.280E-05
CGA:  35    -0.808920757457E+03   -0.44479E-03   -0.44464E-03  2208   0.420E-02 0.405E-05
CGA:  36    -0.808921041624E+03   -0.28417E-03   -0.28414E-03  2208   0.339E-02 0.499E-06
CGA:  37    -0.808921242319E+03   -0.20069E-03   -0.20080E-03  2208   0.193E-02-0.569E-05
CGA:  38    -0.808921391750E+03   -0.14943E-03   -0.14940E-03  2208   0.272E-02 0.177E-06
CGA:  39    -0.808921539833E+03   -0.14808E-03   -0.14808E-03  2208   0.195E-02 0.400E-06
CGA:  40    -0.808921656925E+03   -0.11709E-03   -0.11709E-03  2208   0.212E-02 0.215E-06
CGA:  41    -0.808921746101E+03   -0.89176E-04   -0.89188E-04  2208   0.675E-03 0.186E-05
CGA:  42    -0.808921836877E+03   -0.90776E-04   -0.90360E-04  2208   0.906E-03 0.451E-05
CGA:  43    -0.808921937037E+03   -0.10016E-03   -0.99932E-04  2208   0.845E-03 0.338E-05
CGA:  44    -0.808921972312E+03   -0.35275E-04   -0.35284E-04  2208   0.462E-03 0.598E-06
CGA:  45    -0.808921992696E+03   -0.20384E-04   -0.20390E-04  2208   0.381E-03 0.428E-06
CGA:  46    -0.808922026891E+03   -0.34195E-04   -0.34125E-04  2208   0.426E-03 0.162E-05
CGA:  47    -0.808922068045E+03   -0.41154E-04   -0.41059E-04  2208   0.190E-03 0.206E-05
CGA:  48    -0.808922081828E+03   -0.13783E-04   -0.13765E-04  2208   0.125E-03 0.921E-06
CGA:  49    -0.808922092454E+03   -0.10627E-04   -0.10591E-04  2208   0.228E-03 0.116E-05
CGA:  50    -0.808922104126E+03   -0.11672E-04   -0.11687E-04  2208   0.913E-04 0.182E-05
CGA:  51    -0.808922108496E+03   -0.43703E-05   -0.43826E-05  2208   0.867E-04 0.101E-05
  16 F= -.80892211E+03 E0= -.80888885E+03  d E =0.708727E-01  mag=    66.0000
       N       E                     dE             d eps       ncg     rms          ort
SDA:   1    -0.806447323992E+03    0.24748E+01    0.00000E+00  2208   0.100E+02 0.000E+00
CGA:   2    -0.807616206135E+03   -0.11689E+01   -0.11540E+01  2208   0.118E+02 0.256E+00
CGA:   3    -0.808114773520E+03   -0.49857E+00   -0.49490E+00  2208   0.457E+01 0.222E-02
CGA:   4    -0.808354035952E+03   -0.23926E+00   -0.23803E+00  2208   0.491E+01-0.583E-01
CGA:   5    -0.808623908105E+03   -0.26987E+00   -0.26958E+00  2208   0.384E+01-0.367E-01
CGA:   6    -0.808813059066E+03   -0.18915E+00   -0.18975E+00  2208   0.107E+01 0.216E-01
CGA:   7    -0.808852174604E+03   -0.39116E-01   -0.38911E-01  2208   0.423E+00 0.915E-03
CGA:   8    -0.808884438428E+03   -0.32264E-01   -0.32237E-01  2208   0.342E+00 0.110E-02
CGA:   9    -0.808905062644E+03   -0.20624E-01   -0.20629E-01  2208   0.205E+00-0.111E-02
CGA:  10    -0.808910924241E+03   -0.58616E-02   -0.58777E-02  2208   0.665E-01-0.248E-03
CGA:  11    -0.808914749559E+03   -0.38253E-02   -0.38251E-02  2208   0.448E-01 0.194E-03
CGA:  12    -0.808918155534E+03   -0.34060E-02   -0.34089E-02  2208   0.340E-01-0.105E-03
CGA:  13    -0.808920371672E+03   -0.22161E-02   -0.22152E-02  2208   0.152E-01 0.821E-04
CGA:  14    -0.808921123036E+03   -0.75136E-03   -0.75188E-03  2208   0.915E-02 0.232E-04
CGA:  15    -0.808921669971E+03   -0.54694E-03   -0.54690E-03  2208   0.104E-01 0.152E-04
CGA:  16    -0.808922356189E+03   -0.68622E-03   -0.68612E-03  2208   0.874E-02 0.103E-04
CGA:  17    -0.808922689642E+03   -0.33345E-03   -0.33343E-03  2208   0.459E-02 0.169E-05
CGA:  18    -0.808922982430E+03   -0.29279E-03   -0.29274E-03  2208   0.281E-02 0.664E-05
CGA:  19    -0.808923276578E+03   -0.29415E-03   -0.29386E-03  2208   0.327E-02 0.612E-05
CGA:  20    -0.808923507173E+03   -0.23060E-03   -0.23056E-03  2208   0.232E-02 0.277E-05
CGA:  21    -0.808923630421E+03   -0.12325E-03   -0.12325E-03  2208   0.145E-02 0.581E-06
CGA:  22    -0.808923704641E+03   -0.74220E-04   -0.74225E-04  2208   0.149E-02 0.233E-06
CGA:  23    -0.808923784836E+03   -0.80195E-04   -0.80198E-04  2208   0.940E-03-0.156E-06
CGA:  24    -0.808923858897E+03   -0.74061E-04   -0.74082E-04  2208   0.890E-03-0.106E-05
CGA:  25    -0.808923894295E+03   -0.35397E-04   -0.35399E-04  2208   0.346E-03-0.641E-06
CGA:  26    -0.808923932122E+03   -0.37827E-04   -0.37900E-04  2208   0.339E-03-0.151E-05
CGA:  27    -0.808923966845E+03   -0.34722E-04   -0.34760E-04  2208   0.314E-03-0.101E-05
CGA:  28    -0.808923983026E+03   -0.16181E-04   -0.16179E-04  2208   0.149E-03-0.264E-06
CGA:  29    -0.808923993844E+03   -0.10819E-04   -0.10814E-04  2208   0.158E-03 0.369E-06
CGA:  30    -0.808924004594E+03   -0.10750E-04   -0.10749E-04  2208   0.182E-03 0.256E-06
CGA:  31    -0.808924014172E+03   -0.95781E-05   -0.95812E-05  2208   0.980E-04 0.236E-06
  17 F= -.80892401E+03 E0= -.80889003E+03  d E =-.190568E-02  mag=    66.0000
       N       E                     dE             d eps       ncg     rms          ort
SDA:   1    -0.808371115933E+03    0.55289E+00    0.00000E+00  2208   0.259E+01 0.000E+00
CGA:   2    -0.808517571191E+03   -0.14646E+00   -0.14637E+00  2208   0.418E+01-0.606E-02
CGA:   3    -0.808741942876E+03   -0.22437E+00   -0.22419E+00  2208   0.116E+01-0.704E-02
CGA:   4    -0.808800740896E+03   -0.58798E-01   -0.58779E-01  2208   0.891E+00-0.228E-03
CGA:   5    -0.808867276680E+03   -0.66536E-01   -0.66371E-01  2208   0.852E+00 0.827E-02
CGA:   6    -0.808910129400E+03   -0.42853E-01   -0.42677E-01  2208   0.247E+00-0.369E-02
CGA:   7    -0.808920534058E+03   -0.10405E-01   -0.10382E-01  2208   0.106E+00-0.397E-04
CGA:   8    -0.808926189110E+03   -0.56551E-02   -0.56523E-02  2208   0.106E+00-0.143E-03
CGA:   9    -0.808931255056E+03   -0.50659E-02   -0.50670E-02  2208   0.541E-01 0.340E-04
CGA:  10    -0.808934075839E+03   -0.28208E-02   -0.28217E-02  2208   0.140E-01 0.539E-04
CGA:  11    -0.808934909506E+03   -0.83367E-03   -0.83370E-03  2208   0.109E-01-0.228E-04
CGA:  12    -0.808935492779E+03   -0.58327E-03   -0.58332E-03  2208   0.864E-02 0.679E-05
CGA:  13    -0.808936055422E+03   -0.56264E-03   -0.56253E-03  2208   0.684E-02 0.129E-04
CGA:  14    -0.808936287100E+03   -0.23168E-03   -0.23169E-03  2208   0.216E-02 0.351E-05
CGA:  15    -0.808936422245E+03   -0.13515E-03   -0.13514E-03  2208   0.210E-02 0.128E-05
CGA:  16    -0.808936568873E+03   -0.14663E-03   -0.14660E-03  2208   0.194E-02 0.163E-05
CGA:  17    -0.808936718285E+03   -0.14941E-03   -0.14932E-03  2208   0.108E-02 0.402E-05
CGA:  18    -0.808936772189E+03   -0.53904E-04   -0.53908E-04  2208   0.101E-02 0.475E-06
CGA:  19    -0.808936821686E+03   -0.49496E-04   -0.49496E-04  2208   0.731E-03 0.339E-06
CGA:  20    -0.808936897502E+03   -0.75816E-04   -0.75731E-04  2208   0.862E-03 0.173E-05
CGA:  21    -0.808936932132E+03   -0.34630E-04   -0.34637E-04  2208   0.358E-03 0.389E-06
CGA:  22    -0.808936955859E+03   -0.23727E-04   -0.23726E-04  2208   0.242E-03-0.112E-06
CGA:  23    -0.808936976620E+03   -0.20761E-04   -0.20779E-04  2208   0.402E-03-0.906E-06
CGA:  24    -0.808936992955E+03   -0.16335E-04   -0.16321E-04  2208   0.178E-03-0.796E-06
CGA:  25    -0.808937002148E+03   -0.91928E-05   -0.91899E-05  2208   0.868E-04-0.360E-06
  18 F= -.80893700E+03 E0= -.80890321E+03  d E =-.129880E-01  mag=    66.0000
       N       E                     dE             d eps       ncg     rms          ort
SDA:   1    -0.808620320637E+03    0.31667E+00    0.00000E+00  2208   0.169E+01 0.000E+00
CGA:   2    -0.808699327776E+03   -0.79007E-01   -0.78474E-01  2208   0.186E+01-0.525E-02
CGA:   3    -0.808834502718E+03   -0.13517E+00   -0.13521E+00  2208   0.979E+00-0.221E-02
CGA:   4    -0.808865305506E+03   -0.30803E-01   -0.31091E-01  2208   0.341E+00-0.378E-02
CGA:   5    -0.808886542078E+03   -0.21237E-01   -0.21230E-01  2208   0.361E+00 0.127E-02
CGA:   6    -0.808911167220E+03   -0.24625E-01   -0.24624E-01  2208   0.167E+00 0.126E-03
CGA:   7    -0.808919789435E+03   -0.86222E-02   -0.86190E-02  2208   0.497E-01-0.128E-03
CGA:   8    -0.808923687849E+03   -0.38984E-02   -0.38983E-02  2208   0.435E-01 0.516E-05
CGA:   9    -0.808926299741E+03   -0.26119E-02   -0.26119E-02  2208   0.332E-01 0.307E-04
CGA:  10    -0.808927494438E+03   -0.11947E-02   -0.11967E-02  2208   0.913E-02-0.868E-05
CGA:  11    -0.808927922324E+03   -0.42789E-03   -0.42792E-03  2208   0.591E-02 0.133E-05
CGA:  12    -0.808928228638E+03   -0.30631E-03   -0.30630E-03  2208   0.513E-02-0.817E-06
CGA:  13    -0.808928679591E+03   -0.45095E-03   -0.45087E-03  2208   0.268E-02 0.241E-05
CGA:  14    -0.808928830401E+03   -0.15081E-03   -0.15081E-03  2208   0.128E-02-0.959E-06
CGA:  15    -0.808928946940E+03   -0.11654E-03   -0.11651E-03  2208   0.216E-02 0.331E-06
CGA:  16    -0.808929067802E+03   -0.12086E-03   -0.12086E-03  2208   0.152E-02-0.229E-06
CGA:  17    -0.808929150023E+03   -0.82221E-04   -0.82223E-04  2208   0.138E-02 0.818E-07
CGA:  18    -0.808929224756E+03   -0.74733E-04   -0.74744E-04  2208   0.746E-03 0.445E-06
CGA:  19    -0.808929270565E+03   -0.45809E-04   -0.45808E-04  2208   0.849E-03 0.523E-06
CGA:  20    -0.808929339679E+03   -0.69114E-04   -0.69078E-04  2208   0.528E-03 0.155E-05
CGA:  21    -0.808929380679E+03   -0.41000E-04   -0.40989E-04  2208   0.369E-03 0.733E-06
CGA:  22    -0.808929397928E+03   -0.17248E-04   -0.17258E-04  2208   0.180E-03 0.559E-06
CGA:  23    -0.808929412158E+03   -0.14230E-04   -0.14216E-04  2208   0.310E-03 0.670E-06
CGA:  24    -0.808929427044E+03   -0.14887E-04   -0.14897E-04  2208   0.136E-03 0.681E-06
CGA:  25    -0.808929434760E+03   -0.77157E-05   -0.77172E-05  2208   0.847E-04 0.111E-06
  19 F= -.80892943E+03 E0= -.80889611E+03  d E =0.756739E-02  mag=    66.0000
       N       E                     dE             d eps       ncg     rms          ort
SDA:   1    -0.795839918402E+03    0.13090E+02    0.00000E+00  2208   0.131E+03 0.000E+00
CGA:   2    -0.799602211044E+03   -0.37623E+01   -0.45417E+01  2208   0.509E+02 0.734E+01
CGA:   3    -0.803664413853E+03   -0.40622E+01   -0.40849E+01  2208   0.552E+02-0.153E+01
CGA:   4    -0.806143080775E+03   -0.24787E+01   -0.23937E+01  2208   0.142E+02-0.235E+00
CGA:   5    -0.807003988093E+03   -0.86091E+00   -0.86108E+00  2208   0.152E+02-0.611E-01
CGA:   6    -0.807832700372E+03   -0.82871E+00   -0.82736E+00  2208   0.125E+02-0.924E-01
CGA:   7    -0.808444318265E+03   -0.61162E+00   -0.60647E+00  2208   0.342E+01-0.127E+00
CGA:   8    -0.808577358653E+03   -0.13304E+00   -0.13900E+00  2208   0.194E+01 0.432E-01
CGA:   9    -0.808691856539E+03   -0.11450E+00   -0.11449E+00  2208   0.199E+01 0.254E-01
CGA:  10    -0.808789596573E+03   -0.97740E-01   -0.97847E-01  2208   0.679E+00 0.383E-02
CGA:  11    -0.808819565158E+03   -0.29969E-01   -0.30086E-01  2208   0.279E+00 0.204E-02
CGA:  12    -0.808832533934E+03   -0.12969E-01   -0.13051E-01  2208   0.230E+00 0.238E-02
CGA:  13    -0.808849450927E+03   -0.16917E-01   -0.16848E-01  2208   0.166E+00 0.306E-02
CGA:  14    -0.808859435732E+03   -0.99848E-02   -0.99778E-02  2208   0.795E-01 0.187E-02
CGA:  15    -0.808863421975E+03   -0.39862E-02   -0.39919E-02  2208   0.553E-01 0.224E-03
CGA:  16    -0.808868126966E+03   -0.47050E-02   -0.46830E-02  2208   0.713E-01 0.675E-03
CGA:  17    -0.808872246837E+03   -0.41199E-02   -0.41209E-02  2208   0.380E-01 0.423E-03
CGA:  18    -0.808874643734E+03   -0.23969E-02   -0.23948E-02  2208   0.301E-01 0.304E-03
CGA:  19    -0.808876436460E+03   -0.17927E-02   -0.17926E-02  2208   0.263E-01 0.131E-03
CGA:  20    -0.808878747752E+03   -0.23113E-02   -0.23056E-02  2208   0.283E-01 0.168E-03
CGA:  21    -0.808880204185E+03   -0.14564E-02   -0.14583E-02  2208   0.983E-02 0.790E-04
CGA:  22    -0.808881037597E+03   -0.83341E-03   -0.83297E-03  2208   0.125E-01 0.167E-04
CGA:  23    -0.808881793748E+03   -0.75615E-03   -0.75616E-03  2208   0.890E-02 0.207E-04
CGA:  24    -0.808882370888E+03   -0.57714E-03   -0.57708E-03  2208   0.491E-02 0.121E-04
CGA:  25    -0.808882666051E+03   -0.29516E-03   -0.29516E-03  2208   0.340E-02-0.124E-06
CGA:  26    -0.808882920861E+03   -0.25481E-03   -0.25474E-03  2208   0.451E-02 0.408E-05
CGA:  27    -0.808883209032E+03   -0.28817E-03   -0.28817E-03  2208   0.222E-02 0.853E-06
CGA:  28    -0.808883346559E+03   -0.13753E-03   -0.13753E-03  2208   0.144E-02-0.176E-05
CGA:  29    -0.808883449425E+03   -0.10287E-03   -0.10288E-03  2208   0.153E-02-0.136E-05
CGA:  30    -0.808883555459E+03   -0.10603E-03   -0.10604E-03  2208   0.113E-02-0.805E-06
CGA:  31    -0.808883622397E+03   -0.66938E-04   -0.66928E-04  2208   0.559E-03-0.203E-05
SDA:  32    -0.808883658024E+03   -0.35626E-04   -0.35625E-04  2208   0.466E-03-0.132E-06
CGA:  33    -0.808883671830E+03   -0.13806E-04   -0.13801E-04  2208   0.197E-03-0.227E-06
CGA:  34    -0.808883696590E+03   -0.24760E-04   -0.24719E-04  2208   0.402E-03 0.373E-06
CGA:  35    -0.808883725230E+03   -0.28640E-04   -0.28636E-04  2208   0.259E-03 0.305E-06
CGA:  36    -0.808883738846E+03   -0.13616E-04   -0.13621E-04  2208   0.103E-03 0.450E-07
CGA:  37    -0.808883747634E+03   -0.87878E-05   -0.87719E-05  2208   0.166E-03 0.489E-06
CGA:  38    -0.808883760770E+03   -0.13136E-04   -0.13120E-04  2208   0.192E-03 0.993E-06
CGA:  39    -0.808883773051E+03   -0.12282E-04   -0.12284E-04  2208   0.791E-04 0.866E-06
CGA:  40    -0.808883778751E+03   -0.56999E-05   -0.56955E-05  2208   0.588E-04 0.553E-06
  20 F= -.80888378E+03 E0= -.80885271E+03  d E =0.456560E-01  mag=    66.0000
       N       E                     dE             d eps       ncg     rms          ort
SDA:   1    -0.806666791153E+03    0.22170E+01    0.00000E+00  2208   0.883E+01 0.000E+00
CGA:   2    -0.807832391055E+03   -0.11656E+01   -0.11478E+01  2208   0.834E+01 0.268E+00
CGA:   3    -0.808197247988E+03   -0.36486E+00   -0.35311E+00  2208   0.403E+01 0.139E+00
CGA:   4    -0.808448092873E+03   -0.25084E+00   -0.24886E+00  2208   0.364E+01-0.869E-01
CGA:   5    -0.808707595207E+03   -0.25950E+00   -0.25946E+00  2208   0.230E+01 0.556E-02
CGA:   6    -0.808822911159E+03   -0.11532E+00   -0.11583E+00  2208   0.495E+00 0.419E-02
CGA:   7    -0.808850401078E+03   -0.27490E-01   -0.27480E-01  2208   0.418E+00-0.563E-04
CGA:   8    -0.808874845350E+03   -0.24444E-01   -0.24449E-01  2208   0.278E+00 0.221E-03
CGA:   9    -0.808889531016E+03   -0.14686E-01   -0.14686E-01  2208   0.830E-01 0.634E-05
CGA:  10    -0.808893420721E+03   -0.38897E-02   -0.38962E-02  2208   0.403E-01 0.402E-04
CGA:  11    -0.808896497172E+03   -0.30765E-02   -0.30761E-02  2208   0.433E-01 0.267E-04
CGA:  12    -0.808898763857E+03   -0.22667E-02   -0.22652E-02  2208   0.260E-01-0.212E-04
CGA:  13    -0.808900083783E+03   -0.13199E-02   -0.13212E-02  2208   0.918E-02 0.249E-04
CGA:  14    -0.808900661750E+03   -0.57797E-03   -0.57801E-03  2208   0.641E-02 0.176E-04
CGA:  15    -0.808901480232E+03   -0.81848E-03   -0.81694E-03  2208   0.569E-02 0.248E-04
CGA:  16    -0.808901795513E+03   -0.31528E-03   -0.31534E-03  2208   0.502E-02 0.591E-05
CGA:  17    -0.808902023187E+03   -0.22767E-03   -0.22777E-03  2208   0.212E-02 0.379E-05
CGA:  18    -0.808902298553E+03   -0.27537E-03   -0.27508E-03  2208   0.293E-02 0.412E-05
CGA:  19    -0.808902522273E+03   -0.22372E-03   -0.22373E-03  2208   0.200E-02-0.118E-05
CGA:  20    -0.808902612577E+03   -0.90304E-04   -0.90320E-04  2208   0.105E-02-0.872E-06
CGA:  21    -0.808902694839E+03   -0.82263E-04   -0.82284E-04  2208   0.124E-02-0.219E-05
CGA:  22    -0.808902781525E+03   -0.86685E-04   -0.86689E-04  2208   0.107E-02-0.275E-05
CGA:  23    -0.808902848284E+03   -0.66759E-04   -0.66753E-04  2208   0.368E-03-0.137E-05
CGA:  24    -0.808902875785E+03   -0.27501E-04   -0.27504E-04  2208   0.545E-03-0.363E-06
CGA:  25    -0.808902910193E+03   -0.34408E-04   -0.34409E-04  2208   0.475E-03 0.164E-06
CGA:  26    -0.808902944023E+03   -0.33829E-04   -0.33827E-04  2208   0.187E-03 0.594E-06
CGA:  27    -0.808902957466E+03   -0.13444E-04   -0.13444E-04  2208   0.152E-03 0.203E-08
CGA:  28    -0.808902972513E+03   -0.15047E-04   -0.15044E-04  2208   0.159E-03 0.341E-07
CGA:  29    -0.808902981794E+03   -0.92811E-05   -0.92795E-05  2208   0.131E-03-0.207E-06
  21 F= -.80890298E+03 E0= -.80887166E+03  d E =-.192030E-01  mag=    66.0000
       N       E                     dE             d eps       ncg     rms          ort
SDA:   1    -0.808424945676E+03    0.47803E+00    0.00000E+00  2208   0.202E+01 0.000E+00
CGA:   2    -0.808633935799E+03   -0.20899E+00   -0.20994E+00  2208   0.397E+01-0.212E-01
CGA:   3    -0.808782161877E+03   -0.14823E+00   -0.14939E+00  2208   0.759E+00-0.127E-01
CGA:   4    -0.808819804002E+03   -0.37642E-01   -0.37864E-01  2208   0.564E+00 0.185E-02
CGA:   5    -0.808876755704E+03   -0.56952E-01   -0.57063E-01  2208   0.365E+00-0.275E-02
CGA:   6    -0.808893756685E+03   -0.17001E-01   -0.17095E-01  2208   0.133E+00 0.174E-03
CGA:   7    -0.808900496044E+03   -0.67394E-02   -0.67203E-02  2208   0.956E-01-0.122E-03
CGA:   8    -0.808907620857E+03   -0.71248E-02   -0.71262E-02  2208   0.726E-01-0.105E-03
CGA:   9    -0.808910785350E+03   -0.31645E-02   -0.31693E-02  2208   0.150E-01-0.111E-04
CGA:  10    -0.808911718492E+03   -0.93314E-03   -0.93300E-03  2208   0.924E-02-0.115E-04
CGA:  11    -0.808912650022E+03   -0.93153E-03   -0.93157E-03  2208   0.861E-02 0.273E-06
CGA:  12    -0.808913163816E+03   -0.51379E-03   -0.51388E-03  2208   0.479E-02 0.696E-05
CGA:  13    -0.808913366245E+03   -0.20243E-03   -0.20257E-03  2208   0.274E-02 0.152E-05
CGA:  14    -0.808913583428E+03   -0.21718E-03   -0.21713E-03  2208   0.272E-02 0.334E-05
CGA:  15    -0.808913838957E+03   -0.25553E-03   -0.25547E-03  2208   0.278E-02 0.196E-05
CGA:  16    -0.808913961633E+03   -0.12268E-03   -0.12267E-03  2208   0.167E-02 0.136E-05
CGA:  17    -0.808914080439E+03   -0.11881E-03   -0.11880E-03  2208   0.121E-02 0.241E-05
CGA:  18    -0.808914185684E+03   -0.10525E-03   -0.10524E-03  2208   0.134E-02 0.699E-06
CGA:  19    -0.808914285795E+03   -0.10011E-03   -0.10011E-03  2208   0.896E-03 0.397E-06
CGA:  20    -0.808914346309E+03   -0.60514E-04   -0.60513E-04  2208   0.400E-03-0.110E-05
CGA:  21    -0.808914371109E+03   -0.24800E-04   -0.24799E-04  2208   0.410E-03-0.437E-06
CGA:  22    -0.808914401827E+03   -0.30718E-04   -0.30724E-04  2208   0.406E-03-0.791E-06
CGA:  23    -0.808914423468E+03   -0.21640E-04   -0.21626E-04  2208   0.167E-03-0.919E-06
CGA:  24    -0.808914433227E+03   -0.97592E-05   -0.97553E-05  2208   0.107E-03-0.512E-06
  22 F= -.80891443E+03 E0= -.80888260E+03  d E =-.114514E-01  mag=    66.0000
       N       E                     dE             d eps       ncg     rms          ort
SDA:   1    -0.808784972712E+03    0.12945E+00    0.00000E+00  2208   0.948E+00 0.000E+00
CGA:   2    -0.808814667456E+03   -0.29695E-01   -0.29476E-01  2208   0.530E+00 0.414E-02
CGA:   3    -0.808872238642E+03   -0.57571E-01   -0.57604E-01  2208   0.255E+00-0.677E-03
CGA:   4    -0.808885285755E+03   -0.13047E-01   -0.13080E-01  2208   0.205E+00 0.441E-03
CGA:   5    -0.808899502577E+03   -0.14217E-01   -0.14217E-01  2208   0.177E+00 0.141E-04
CGA:   6    -0.808908190518E+03   -0.86879E-02   -0.86988E-02  2208   0.704E-01 0.682E-04
CGA:   7    -0.808912010568E+03   -0.38201E-02   -0.38193E-02  2208   0.172E-01-0.169E-04
CGA:   8    -0.808913278674E+03   -0.12681E-02   -0.12679E-02  2208   0.169E-01 0.177E-04
CGA:   9    -0.808914126830E+03   -0.84816E-03   -0.84851E-03  2208   0.107E-01 0.829E-05
CGA:  10    -0.808914643622E+03   -0.51679E-03   -0.51659E-03  2208   0.285E-02-0.214E-05
CGA:  11    -0.808914811212E+03   -0.16759E-03   -0.16759E-03  2208   0.195E-02 0.335E-06
CGA:  12    -0.808914921873E+03   -0.11066E-03   -0.11067E-03  2208   0.164E-02 0.491E-06
CGA:  13    -0.808915040643E+03   -0.11877E-03   -0.11876E-03  2208   0.103E-02 0.645E-06
CGA:  14    -0.808915087822E+03   -0.47179E-04   -0.47156E-04  2208   0.399E-03-0.510E-06
CGA:  15    -0.808915117696E+03   -0.29874E-04   -0.29877E-04  2208   0.391E-03-0.499E-06
CGA:  16    -0.808915148306E+03   -0.30610E-04   -0.30627E-04  2208   0.434E-03-0.125E-05
CGA:  17    -0.808915171351E+03   -0.23046E-04   -0.23041E-04  2208   0.272E-03-0.593E-06
CGA:  18    -0.808915185132E+03   -0.13781E-04   -0.13782E-04  2208   0.132E-03-0.601E-07
CGA:  19    -0.808915198975E+03   -0.13843E-04   -0.13803E-04  2208   0.191E-03 0.835E-06
CGA:  20    -0.808915210705E+03   -0.11730E-04   -0.11737E-04  2208   0.144E-03 0.114E-05
CGA:  21    -0.808915217875E+03   -0.71699E-05   -0.71808E-05  2208   0.644E-04 0.630E-06
  23 F= -.80891522E+03 E0= -.80888333E+03  d E =-.784648E-03  mag=    66.0000
