       N       E                     dE             d eps       ncg     rms          ort
DAV:   1     0.137114514146E+05    0.13711E+05   -0.62421E+05  2944   0.168E+03
DAV:   2     0.495963128413E+03   -0.13215E+05   -0.12214E+05  2944   0.465E+02
DAV:   3    -0.126540271661E+04   -0.17614E+04   -0.17277E+04  2944   0.182E+02
DAV:   4    -0.134416709918E+04   -0.78764E+02   -0.77726E+02  2944   0.383E+01
DAV:   5    -0.134870731115E+04   -0.45402E+01   -0.45205E+01  2944   0.696E+00
SDA:   6    -0.856320809386E+03    0.49239E+03   -0.45205E+01  2944   0.214E+04 0.000E+00
CGA:   7    -0.112654117671E+04   -0.27022E+03   -0.29212E+03  2944   0.329E+03 0.887E+02
CGA:   8    -0.114962620697E+04   -0.23085E+02   -0.36191E+02  2944   0.390E+03-0.895E+02
CGA:   9    -0.115046918909E+04   -0.84298E+00   -0.18027E+02  2944   0.453E+03-0.151E+03
CGA:  10    -0.115441924302E+04   -0.39501E+01   -0.14844E+02  2944   0.279E+03-0.519E+02
CGA:  11    -0.115794115739E+04   -0.35219E+01   -0.16783E+02  2944   0.282E+03-0.757E+02
CGA:  12    -0.116216647177E+04   -0.42253E+01   -0.17151E+02  2944   0.358E+03-0.649E+02
CGA:  13    -0.116160766958E+04    0.55880E+00   -0.14224E+02  2944   0.140E+03-0.112E+03
CGA:  14    -0.116260781143E+04   -0.10001E+01   -0.58836E+01  2944   0.205E+03-0.802E+02
CGA:  15    -0.116641795881E+04   -0.38101E+01   -0.15261E+02  2944   0.114E+03-0.492E+02
CGA:  16    -0.117180785941E+04   -0.53899E+01   -0.70373E+01  2944   0.167E+03 0.263E+01
CGA:  17    -0.117586732108E+04   -0.40595E+01   -0.11891E+02  2944   0.111E+03-0.236E+01
CGA:  18    -0.117258241951E+04    0.32849E+01   -0.57263E+01  2944   0.658E+02-0.397E+02
CGA:  19    -0.117707901458E+04   -0.44966E+01   -0.21856E+01  2944   0.244E+03-0.229E+03
CGA:  20    -0.117435466457E+04    0.27244E+01   -0.14583E+02  2944   0.898E+02-0.481E+02
CGA:  21    -0.117586190311E+04   -0.15072E+01   -0.38434E+01  2944   0.120E+03-0.857E+02
CGA:  22    -0.117591957814E+04   -0.57675E-01   -0.58814E+01  2944   0.986E+02-0.827E+02
CGA:  23    -0.117691504993E+04   -0.99547E+00   -0.47207E+01  2944   0.105E+03-0.926E+02
CGA:  24    -0.117822784720E+04   -0.13128E+01   -0.46645E+01  2944   0.148E+03-0.149E+03
CGA:  25    -0.117737366916E+04    0.85418E+00   -0.70816E+01  2944   0.957E+02-0.722E+02
CGA:  26    -0.118356434743E+04   -0.61907E+01   -0.21268E+01  2944   0.407E+02-0.873E+02
CGA:  27    -0.118370027800E+04   -0.13593E+00   -0.11765E+01  2944   0.806E+02-0.565E+02
CGA:  28    -0.118135083099E+04    0.23494E+01   -0.30208E+01  2944   0.179E+03-0.807E+02
CGA:  29    -0.117737435195E+04    0.39765E+01   -0.74974E+01  2944   0.923E+02-0.539E+02
CGA:  30    -0.118055449455E+04   -0.31801E+01   -0.24218E+01  2944   0.187E+03-0.206E+03
CGA:  31    -0.117740449131E+04    0.31500E+01   -0.74419E+01  2944   0.800E+02-0.520E+02
CGA:  32    -0.118165920665E+04   -0.42547E+01   -0.19850E+01  2944   0.182E+03-0.222E+03
CGA:  33    -0.117803795443E+04    0.36213E+01   -0.66899E+01  2944   0.802E+02-0.500E+02
CGA:  34    -0.118267064560E+04   -0.46327E+01   -0.17830E+01  2944   0.164E+03-0.217E+03
CGA:  35    -0.117905814226E+04    0.36125E+01   -0.55244E+01  2944   0.142E+03-0.825E+02
CGA:  36    -0.117807753378E+04    0.98061E+00   -0.46591E+01  2944   0.120E+03-0.981E+02
CGA:  37    -0.117898978827E+04   -0.91225E+00   -0.39327E+01  2944   0.102E+03-0.103E+03
CGA:  38    -0.118024983878E+04   -0.12601E+01   -0.29979E+01  2944   0.156E+03-0.176E+03
CGA:  39    -0.117954086219E+04    0.70898E+00   -0.47865E+01  2944   0.142E+03-0.130E+03
CGA:  40    -0.117989860730E+04   -0.35775E+00   -0.41605E+01  2944   0.174E+03-0.173E+03
CGA:  41    -0.117987722122E+04    0.21386E-01   -0.52220E+01  2944   0.151E+03-0.146E+03
CGA:  42    -0.118087389602E+04   -0.99667E+00   -0.42078E+01  2944   0.167E+03-0.185E+03
CGA:  43    -0.118113776619E+04   -0.26387E+00   -0.46155E+01  2944   0.182E+03-0.186E+03
CGA:  44    -0.118159271850E+04   -0.45495E+00   -0.48304E+01  2944   0.169E+03-0.178E+03
CGA:  45    -0.118213066102E+04   -0.53794E+00   -0.43430E+01  2944   0.169E+03-0.182E+03
CGA:  46    -0.118284265992E+04   -0.71200E+00   -0.41046E+01  2944   0.136E+03-0.155E+03
CGA:  47    -0.118368587525E+04   -0.84322E+00   -0.30802E+01  2944   0.103E+03-0.129E+03
CGA:  48    -0.118452478800E+04   -0.83891E+00   -0.20402E+01  2944   0.467E+02-0.720E+02
CGA:  49    -0.118505835980E+04   -0.53357E+00   -0.72599E+00  2944   0.535E+01-0.160E+02
CGA:  50    -0.118512500957E+04   -0.66650E-01   -0.67375E-01  2944   0.163E+00-0.499E-01
CGA:  51    -0.118514286376E+04   -0.17854E-01   -0.17374E-01  2944   0.784E+00 0.871E-02
CGA:  52    -0.118518819750E+04   -0.45334E-01   -0.45309E-01  2944   0.549E+00 0.620E-01
CGA:  53    -0.118522003313E+04   -0.31836E-01   -0.31648E-01  2944   0.542E+00-0.714E-01
CGA:  54    -0.118523074231E+04   -0.10709E-01   -0.94658E-02  2944   0.307E+00 0.473E-01
CGA:  55    -0.118523909468E+04   -0.83524E-02   -0.85175E-02  2944   0.298E+00-0.247E-02
CGA:  56    -0.118524818273E+04   -0.90881E-02   -0.95183E-02  2944   0.236E+00-0.168E-02
CGA:  57    -0.118525378980E+04   -0.56071E-02   -0.59462E-02  2944   0.147E+00-0.638E-02
CGA:  58    -0.118526026794E+04   -0.64781E-02   -0.65348E-02  2944   0.145E+00 0.667E-02
CGA:  59    -0.118526533810E+04   -0.50702E-02   -0.51691E-02  2944   0.894E-01 0.495E-03
CGA:  60    -0.118527060490E+04   -0.52668E-02   -0.53108E-02  2944   0.608E-01-0.281E-02
CGA:  61    -0.118527253150E+04   -0.19266E-02   -0.19333E-02  2944   0.395E-01 0.527E-04
CGA:  62    -0.118527480759E+04   -0.22761E-02   -0.22603E-02  2944   0.328E-01 0.116E-02
CGA:  63    -0.118527598796E+04   -0.11804E-02   -0.11922E-02  2944   0.199E-01 0.155E-03
CGA:  64    -0.118527728915E+04   -0.13012E-02   -0.12955E-02  2944   0.143E-01 0.246E-03
CGA:  65    -0.118527800452E+04   -0.71536E-03   -0.71537E-03  2944   0.171E-01-0.214E-04
CGA:  66    -0.118527908853E+04   -0.10840E-02   -0.10816E-02  2944   0.756E-02 0.840E-04
CGA:  67    -0.118527942458E+04   -0.33605E-03   -0.33620E-03  2944   0.808E-02-0.208E-04
CGA:  68    -0.118528005883E+04   -0.63425E-03   -0.63574E-03  2944   0.654E-02-0.680E-04
CGA:  69    -0.118528043955E+04   -0.38072E-03   -0.38208E-03  2944   0.607E-02-0.138E-03
CGA:  70    -0.118528066688E+04   -0.22733E-03   -0.22670E-03  2944   0.283E-02-0.497E-04
CGA:  71    -0.118528094874E+04   -0.28187E-03   -0.28109E-03  2944   0.513E-02 0.137E-04
CGA:  72    -0.118528112852E+04   -0.17978E-03   -0.17900E-03  2944   0.167E-02-0.313E-04
CGA:  73    -0.118528125941E+04   -0.13089E-03   -0.13133E-03  2944   0.173E-02-0.173E-04
CGA:  74    -0.118528134213E+04   -0.82720E-04   -0.82652E-04  2944   0.162E-02-0.123E-04
CGA:  75    -0.118528144129E+04   -0.99159E-04   -0.99324E-04  2944   0.783E-03-0.183E-04
CGA:  76    -0.118528149288E+04   -0.51588E-04   -0.51709E-04  2944   0.122E-02-0.940E-05
CGA:  77    -0.118528155320E+04   -0.60328E-04   -0.60326E-04  2944   0.466E-03-0.569E-05
CGA:  78    -0.118528158877E+04   -0.35571E-04   -0.35655E-04  2944   0.620E-03-0.463E-05
SDA:  79    -0.118528161315E+04   -0.24374E-04   -0.24319E-04  2944   0.310E-03-0.395E-05
CGA:  80    -0.118528163344E+04   -0.20289E-04   -0.20265E-04  2944   0.181E-03 0.117E-05
CGA:  81    -0.118528164219E+04   -0.87495E-05   -0.87544E-05  2944   0.155E-03-0.353E-07
CGA:  82    -0.118528166450E+04   -0.22315E-04   -0.21941E-04  2944   0.156E-03 0.384E-05
CGA:  83    -0.118528168835E+04   -0.23846E-04   -0.23465E-04  2944   0.957E-04 0.396E-05
CGA:  84    -0.118528169793E+04   -0.95838E-05   -0.95432E-05  2944   0.761E-04 0.776E-06
CGA:  85    -0.118528170929E+04   -0.11354E-04   -0.11171E-04  2944   0.170E-03 0.188E-05
CGA:  86    -0.118528171682E+04   -0.75357E-05   -0.75872E-05  2944   0.678E-04 0.150E-05
   1 F= -.11852817E+04 E0= -.11852641E+04  d E =-.118528E+04  mag=   118.0000
       N       E                     dE             d eps       ncg     rms          ort
SDA:   1    -0.118528352128E+04   -0.18120E-02    0.00000E+00  2944   0.183E-01 0.000E+00
CGA:   2    -0.118528404704E+04   -0.52576E-03   -0.52700E-03  2944   0.493E-02-0.257E-04
CGA:   3    -0.118528436770E+04   -0.32066E-03   -0.32057E-03  2944   0.269E-02-0.966E-05
CGA:   4    -0.118528473051E+04   -0.36282E-03   -0.36145E-03  2944   0.138E-02 0.204E-04
CGA:   5    -0.118528485689E+04   -0.12638E-03   -0.12637E-03  2944   0.551E-03 0.158E-05
CGA:   6    -0.118528490320E+04   -0.46310E-04   -0.46338E-04  2944   0.714E-03-0.221E-05
CGA:   7    -0.118528493618E+04   -0.32978E-04   -0.32877E-04  2944   0.271E-03-0.405E-05
CGA:   8    -0.118528495588E+04   -0.19694E-04   -0.19704E-04  2944   0.730E-04-0.502E-05
CGA:   9    -0.118528496843E+04   -0.12551E-04   -0.13220E-04  2944   0.593E-04-0.590E-05
CGA:  10    -0.118528497288E+04   -0.44518E-05   -0.44580E-05  2944   0.901E-04-0.122E-05
   2 F= -.11852850E+04 E0= -.11852673E+04  d E =-.325606E-02  mag=   118.0000
       N       E                     dE             d eps       ncg     rms          ort
SDA:   1    -0.118484587672E+04    0.43909E+00    0.00000E+00  2944   0.187E+01 0.000E+00
CGA:   2    -0.118497020399E+04   -0.12433E+00   -0.12535E+00  2944   0.284E+01 0.401E-01
CGA:   3    -0.118518082245E+04   -0.21062E+00   -0.21055E+00  2944   0.114E+01-0.101E-01
CGA:   4    -0.118525370763E+04   -0.72885E-01   -0.73267E-01  2944   0.389E+00 0.111E-01
CGA:   5    -0.118530432927E+04   -0.50622E-01   -0.50701E-01  2944   0.467E+00-0.136E-02
CGA:   6    -0.118531944744E+04   -0.15118E-01   -0.15381E-01  2944   0.103E+00-0.534E-02
CGA:   7    -0.118532989263E+04   -0.10445E-01   -0.10382E-01  2944   0.524E-01 0.180E-02
CGA:   8    -0.118533404665E+04   -0.41540E-02   -0.41549E-02  2944   0.352E-01-0.492E-03
CGA:   9    -0.118533539125E+04   -0.13446E-02   -0.13456E-02  2944   0.139E-01-0.377E-04
CGA:  10    -0.118533671901E+04   -0.13278E-02   -0.13266E-02  2944   0.678E-02 0.363E-04
CGA:  11    -0.118533750331E+04   -0.78430E-03   -0.78460E-03  2944   0.674E-02-0.722E-05
CGA:  12    -0.118533778151E+04   -0.27820E-03   -0.27814E-03  2944   0.338E-02-0.289E-06
CGA:  13    -0.118533806018E+04   -0.27867E-03   -0.27871E-03  2944   0.205E-02-0.225E-05
CGA:  14    -0.118533829437E+04   -0.23419E-03   -0.23394E-03  2944   0.143E-02 0.611E-05
CGA:  15    -0.118533837969E+04   -0.85318E-04   -0.85304E-04  2944   0.154E-02 0.738E-08
CGA:  16    -0.118533848086E+04   -0.10117E-03   -0.10117E-03  2944   0.596E-03-0.183E-05
CGA:  17    -0.118533856026E+04   -0.79401E-04   -0.79653E-04  2944   0.588E-03-0.441E-05
CGA:  18    -0.118533860127E+04   -0.41007E-04   -0.40986E-04  2944   0.560E-03-0.221E-05
CGA:  19    -0.118533862584E+04   -0.24567E-04   -0.24546E-04  2944   0.173E-03-0.325E-06
CGA:  20    -0.118533866022E+04   -0.34380E-04   -0.34264E-04  2944   0.168E-03 0.961E-06
CGA:  21    -0.118533866943E+04   -0.92099E-05   -0.92376E-05  2944   0.140E-03 0.104E-05
   3 F= -.11853387E+04 E0= -.11853210E+04  d E =-.536965E-01  mag=   118.0000
       N       E                     dE             d eps       ncg     rms          ort
SDA:   1    -0.118358319277E+04    0.17555E+01    0.00000E+00  2944   0.603E+01 0.000E+00
CGA:   2    -0.118417635697E+04   -0.59316E+00   -0.59010E+00  2944   0.133E+02 0.126E+00
CGA:   3    -0.118490191065E+04   -0.72555E+00   -0.71670E+00  2944   0.196E+01-0.317E-02
CGA:   4    -0.118518675751E+04   -0.28485E+00   -0.28548E+00  2944   0.246E+01-0.867E-02
CGA:   5    -0.118528228908E+04   -0.95532E-01   -0.94575E-01  2944   0.896E+00 0.100E-01
CGA:   6    -0.118534085014E+04   -0.58561E-01   -0.58959E-01  2944   0.369E+00 0.632E-02
CGA:   7    -0.118537454041E+04   -0.33690E-01   -0.33665E-01  2944   0.304E+00 0.152E-02
CGA:   8    -0.118538497926E+04   -0.10439E-01   -0.10463E-01  2944   0.663E-01-0.598E-03
CGA:   9    -0.118539255092E+04   -0.75717E-02   -0.75374E-02  2944   0.482E-01 0.777E-03
CGA:  10    -0.118539535351E+04   -0.28026E-02   -0.28106E-02  2944   0.438E-01 0.210E-04
CGA:  11    -0.118539798506E+04   -0.26316E-02   -0.26335E-02  2944   0.148E-01 0.169E-04
CGA:  12    -0.118539923390E+04   -0.12488E-02   -0.12483E-02  2944   0.126E-01 0.555E-04
CGA:  13    -0.118540016538E+04   -0.93149E-03   -0.93152E-03  2944   0.150E-01 0.113E-04
CGA:  14    -0.118540098668E+04   -0.82129E-03   -0.82271E-03  2944   0.366E-02 0.136E-04
CGA:  15    -0.118540153356E+04   -0.54689E-03   -0.54620E-03  2944   0.748E-02 0.956E-05
CGA:  16    -0.118540186762E+04   -0.33406E-03   -0.33436E-03  2944   0.328E-02-0.323E-05
CGA:  17    -0.118540217671E+04   -0.30909E-03   -0.30885E-03  2944   0.205E-02 0.101E-04
CGA:  18    -0.118540235209E+04   -0.17538E-03   -0.17539E-03  2944   0.252E-02-0.132E-05
CGA:  19    -0.118540247531E+04   -0.12321E-03   -0.12318E-03  2944   0.112E-02 0.830E-06
CGA:  20    -0.118540261059E+04   -0.13529E-03   -0.13512E-03  2944   0.729E-03 0.353E-05
CGA:  21    -0.118540265134E+04   -0.40748E-04   -0.40793E-04  2944   0.767E-03 0.183E-05
CGA:  22    -0.118540271938E+04   -0.68037E-04   -0.68005E-04  2944   0.389E-03 0.337E-05
CGA:  23    -0.118540275636E+04   -0.36981E-04   -0.36949E-04  2944   0.437E-03 0.214E-05
CGA:  24    -0.118540277936E+04   -0.23004E-04   -0.23037E-04  2944   0.279E-03 0.122E-05
CGA:  25    -0.118540280064E+04   -0.21275E-04   -0.21280E-04  2944   0.157E-03 0.202E-05
CGA:  26    -0.118540281938E+04   -0.18748E-04   -0.18701E-04  2944   0.225E-03 0.116E-05
CGA:  27    -0.118540282848E+04   -0.90945E-05   -0.91230E-05  2944   0.690E-04 0.665E-06
   4 F= -.11854028E+04 E0= -.11853852E+04  d E =-.641591E-01  mag=   118.0000
       N       E                     dE             d eps       ncg     rms          ort
SDA:   1    -0.118253481710E+04    0.28680E+01    0.00000E+00  2944   0.971E+01 0.000E+00
CGA:   2    -0.118362384963E+04   -0.10890E+01   -0.10781E+01  2944   0.214E+02 0.277E+00
CGA:   3    -0.118461672016E+04   -0.99287E+00   -0.98275E+00  2944   0.355E+01-0.589E-01
CGA:   4    -0.118505326189E+04   -0.43654E+00   -0.42911E+00  2944   0.343E+01 0.147E+00
CGA:   5    -0.118522543907E+04   -0.17218E+00   -0.17263E+00  2944   0.224E+01-0.978E-02
CGA:   6    -0.118534556829E+04   -0.12013E+00   -0.11684E+00  2944   0.560E+00 0.803E-02
CGA:   7    -0.118540491956E+04   -0.59351E-01   -0.58780E-01  2944   0.451E+00 0.162E-01
CGA:   8    -0.118542153936E+04   -0.16620E-01   -0.16677E-01  2944   0.150E+00-0.118E-02
CGA:   9    -0.118543473410E+04   -0.13195E-01   -0.13182E-01  2944   0.729E-01 0.783E-03
CGA:  10    -0.118543936006E+04   -0.46260E-02   -0.46250E-02  2944   0.777E-01-0.139E-04
CGA:  11    -0.118544423030E+04   -0.48702E-02   -0.48750E-02  2944   0.279E-01 0.964E-04
CGA:  12    -0.118544648325E+04   -0.22530E-02   -0.22530E-02  2944   0.222E-01-0.499E-06
CGA:  13    -0.118544768965E+04   -0.12064E-02   -0.12066E-02  2944   0.182E-01 0.138E-04
CGA:  14    -0.118544937734E+04   -0.16877E-02   -0.16872E-02  2944   0.965E-02 0.279E-04
CGA:  15    -0.118545001806E+04   -0.64072E-03   -0.64080E-03  2944   0.919E-02 0.843E-05
CGA:  16    -0.118545064194E+04   -0.62387E-03   -0.62429E-03  2944   0.826E-02 0.228E-04
CGA:  17    -0.118545136468E+04   -0.72275E-03   -0.72268E-03  2944   0.394E-02 0.847E-05
CGA:  18    -0.118545162418E+04   -0.25949E-03   -0.25952E-03  2944   0.482E-02 0.214E-05
CGA:  19    -0.118545196945E+04   -0.34527E-03   -0.34529E-03  2944   0.202E-02 0.422E-05
CGA:  20    -0.118545216558E+04   -0.19613E-03   -0.19606E-03  2944   0.236E-02 0.324E-05
CGA:  21    -0.118545227410E+04   -0.10852E-03   -0.10859E-03  2944   0.111E-02 0.280E-05
CGA:  22    -0.118545239227E+04   -0.11817E-03   -0.11814E-03  2944   0.887E-03 0.101E-05
CGA:  23    -0.118545244902E+04   -0.56758E-04   -0.56778E-04  2944   0.926E-03 0.132E-05
CGA:  24    -0.118545250991E+04   -0.60880E-04   -0.60874E-04  2944   0.395E-03 0.872E-07
CGA:  25    -0.118545255326E+04   -0.43353E-04   -0.43340E-04  2944   0.552E-03 0.374E-06
CGA:  26    -0.118545257805E+04   -0.24791E-04   -0.24761E-04  2944   0.235E-03-0.829E-06
CGA:  27    -0.118545260679E+04   -0.28736E-04   -0.28799E-04  2944   0.218E-03-0.134E-05
CGA:  28    -0.118545261754E+04   -0.10750E-04   -0.10726E-04  2944   0.148E-03-0.880E-06
CGA:  29    -0.118545262839E+04   -0.10859E-04   -0.10858E-04  2944   0.762E-04-0.474E-06
CGA:  30    -0.118545263585E+04   -0.74593E-05   -0.74756E-05  2944   0.994E-04-0.745E-06
   5 F= -.11854526E+04 E0= -.11854350E+04  d E =-.498074E-01  mag=   118.0000
       N       E                     dE             d eps       ncg     rms          ort
SDA:   1    -0.117738778831E+04    0.80648E+01    0.00000E+00  2944   0.244E+02 0.000E+00
CGA:   2    -0.118220613004E+04   -0.48183E+01   -0.46867E+01  2944   0.233E+02 0.127E+01
CGA:   3    -0.118323184375E+04   -0.10257E+01   -0.10127E+01  2944   0.148E+02-0.152E+01
CGA:   4    -0.118432966630E+04   -0.10978E+01   -0.10982E+01  2944   0.849E+01 0.813E+00
CGA:   5    -0.118490352076E+04   -0.57385E+00   -0.58409E+00  2944   0.655E+01 0.161E+00
CGA:   6    -0.118510474176E+04   -0.20122E+00   -0.19442E+00  2944   0.204E+01 0.173E+00
CGA:   7    -0.118526567634E+04   -0.16093E+00   -0.16098E+00  2944   0.234E+01-0.340E-01
CGA:   8    -0.118533513740E+04   -0.69461E-01   -0.68398E-01  2944   0.746E+00 0.236E-01
CGA:   9    -0.118537982101E+04   -0.44684E-01   -0.44752E-01  2944   0.446E+00 0.905E-03
CGA:  10    -0.118539378800E+04   -0.13967E-01   -0.13960E-01  2944   0.254E+00 0.183E-03
CGA:  11    -0.118541417651E+04   -0.20389E-01   -0.20358E-01  2944   0.230E+00 0.215E-02
CGA:  12    -0.118542163449E+04   -0.74580E-02   -0.74771E-02  2944   0.133E+00-0.396E-03
CGA:  13    -0.118543032463E+04   -0.86901E-02   -0.86823E-02  2944   0.711E-01-0.839E-03
CGA:  14    -0.118543278586E+04   -0.24612E-02   -0.24579E-02  2944   0.547E-01 0.621E-04
CGA:  15    -0.118543742660E+04   -0.46407E-02   -0.46344E-02  2944   0.514E-01 0.273E-03
CGA:  16    -0.118543953597E+04   -0.21094E-02   -0.21147E-02  2944   0.451E-01-0.169E-04
CGA:  17    -0.118544189547E+04   -0.23595E-02   -0.23579E-02  2944   0.185E-01-0.266E-05
CGA:  18    -0.118544291108E+04   -0.10156E-02   -0.10151E-02  2944   0.289E-01-0.583E-06
CGA:  19    -0.118544469099E+04   -0.17799E-02   -0.17812E-02  2944   0.158E-01 0.150E-03
CGA:  20    -0.118544553322E+04   -0.84222E-03   -0.84322E-03  2944   0.189E-01 0.261E-04
CGA:  21    -0.118544634517E+04   -0.81195E-03   -0.81141E-03  2944   0.717E-02 0.998E-05
CGA:  22    -0.118544687052E+04   -0.52534E-03   -0.52546E-03  2944   0.120E-01-0.463E-05
CGA:  23    -0.118544734303E+04   -0.47251E-03   -0.47285E-03  2944   0.474E-02 0.267E-05
CGA:  24    -0.118544774684E+04   -0.40381E-03   -0.40362E-03  2944   0.744E-02 0.663E-05
CGA:  25    -0.118544799112E+04   -0.24428E-03   -0.24456E-03  2944   0.245E-02 0.192E-06
CGA:  26    -0.118544820722E+04   -0.21610E-03   -0.21617E-03  2944   0.383E-02-0.130E-05
CGA:  27    -0.118544835154E+04   -0.14432E-03   -0.14438E-03  2944   0.232E-02 0.840E-06
CGA:  28    -0.118544854850E+04   -0.19696E-03   -0.19693E-03  2944   0.210E-02 0.897E-06
CGA:  29    -0.118544861854E+04   -0.70044E-04   -0.70071E-04  2944   0.129E-02 0.105E-05
CGA:  30    -0.118544872506E+04   -0.10652E-03   -0.10649E-03  2944   0.111E-02 0.126E-05
CGA:  31    -0.118544876890E+04   -0.43836E-04   -0.43794E-04  2944   0.982E-03-0.181E-05
SDA:  32    -0.118544883638E+04   -0.67481E-04   -0.67516E-04  2944   0.565E-03-0.445E-05
CGA:  33    -0.118544885798E+04   -0.21603E-04   -0.21608E-04  2944   0.262E-03 0.483E-06
CGA:  34    -0.118544887346E+04   -0.15476E-04   -0.15475E-04  2944   0.250E-03-0.712E-06
CGA:  35    -0.118544891118E+04   -0.37723E-04   -0.38026E-04  2944   0.103E-03-0.334E-05
CGA:  36    -0.118544892204E+04   -0.10864E-04   -0.10906E-04  2944   0.639E-04-0.102E-05
CGA:  37    -0.118544893062E+04   -0.85722E-05   -0.86311E-05  2944   0.789E-04-0.888E-06
   6 F= -.11854489E+04 E0= -.11854313E+04  d E =0.370524E-02  mag=   118.0000
       N       E                     dE             d eps       ncg     rms          ort
SDA:   1    -0.118458825434E+04    0.86067E+00    0.00000E+00  2944   0.258E+01 0.000E+00
CGA:   2    -0.118493150663E+04   -0.34325E+00   -0.34156E+00  2944   0.693E+01 0.270E-01
CGA:   3    -0.118523957398E+04   -0.30807E+00   -0.30648E+00  2944   0.177E+01-0.648E-02
CGA:   4    -0.118537932368E+04   -0.13975E+00   -0.14012E+00  2944   0.686E+00-0.303E-01
CGA:   5    -0.118545035030E+04   -0.71027E-01   -0.70407E-01  2944   0.577E+00 0.154E-01
CGA:   6    -0.118546962155E+04   -0.19271E-01   -0.19373E-01  2944   0.177E+00-0.206E-02
CGA:   7    -0.118548842226E+04   -0.18801E-01   -0.18839E-01  2944   0.839E-01-0.925E-03
CGA:   8    -0.118549369797E+04   -0.52757E-02   -0.52704E-02  2944   0.734E-01-0.167E-03
CGA:   9    -0.118549714339E+04   -0.34454E-02   -0.34483E-02  2944   0.242E-01-0.403E-05
CGA:  10    -0.118549901465E+04   -0.18713E-02   -0.18710E-02  2944   0.136E-01 0.200E-04
CGA:  11    -0.118550012447E+04   -0.11098E-02   -0.11099E-02  2944   0.168E-01-0.797E-05
CGA:  12    -0.118550090362E+04   -0.77915E-03   -0.77927E-03  2944   0.542E-02-0.564E-05
CGA:  13    -0.118550141899E+04   -0.51537E-03   -0.51490E-03  2944   0.364E-02 0.155E-04
CGA:  14    -0.118550167627E+04   -0.25728E-03   -0.25728E-03  2944   0.446E-02 0.124E-05
CGA:  15    -0.118550191573E+04   -0.23946E-03   -0.23966E-03  2944   0.137E-02 0.669E-05
CGA:  16    -0.118550208524E+04   -0.16951E-03   -0.16907E-03  2944   0.127E-02 0.807E-05
CGA:  17    -0.118550213796E+04   -0.52721E-04   -0.52790E-04  2944   0.769E-03 0.181E-05
CGA:  18    -0.118550222574E+04   -0.87778E-04   -0.87736E-04  2944   0.437E-03 0.846E-06
CGA:  19    -0.118550225509E+04   -0.29349E-04   -0.29343E-04  2944   0.411E-03-0.763E-06
CGA:  20    -0.118550227673E+04   -0.21648E-04   -0.21621E-04  2944   0.225E-03-0.146E-05
CGA:  21    -0.118550229820E+04   -0.21461E-04   -0.21483E-04  2944   0.162E-03-0.104E-05
CGA:  22    -0.118550231080E+04   -0.12605E-04   -0.12609E-04  2944   0.193E-03-0.833E-06
CGA:  23    -0.118550232020E+04   -0.93986E-05   -0.93971E-05  2944   0.756E-04-0.857E-07
   7 F= -.11855023E+04 E0= -.11854848E+04  d E =-.533896E-01  mag=   118.0000
       N       E                     dE             d eps       ncg     rms          ort
SDA:   1    -0.118536245932E+04    0.13985E+00    0.00000E+00  2944   0.529E+00 0.000E+00
CGA:   2    -0.118539857978E+04   -0.36120E-01   -0.36126E-01  2944   0.946E+00 0.239E-03
CGA:   3    -0.118546768352E+04   -0.69104E-01   -0.69101E-01  2944   0.182E+00-0.744E-03
CGA:   4    -0.118549084532E+04   -0.23162E-01   -0.23333E-01  2944   0.145E+00-0.298E-02
CGA:   5    -0.118550140676E+04   -0.10561E-01   -0.10559E-01  2944   0.651E-01-0.249E-03
CGA:   6    -0.118550406337E+04   -0.26566E-02   -0.26518E-02  2944   0.394E-01 0.619E-04
CGA:   7    -0.118550707105E+04   -0.30077E-02   -0.30079E-02  2944   0.140E-01-0.137E-03
CGA:   8    -0.118550816761E+04   -0.10966E-02   -0.10967E-02  2944   0.578E-02-0.115E-04
CGA:   9    -0.118550848323E+04   -0.31561E-03   -0.31574E-03  2944   0.515E-02 0.580E-05
CGA:  10    -0.118550877586E+04   -0.29263E-03   -0.29286E-03  2944   0.210E-02 0.529E-05
CGA:  11    -0.118550901886E+04   -0.24300E-03   -0.24300E-03  2944   0.914E-03 0.440E-06
CGA:  12    -0.118550906810E+04   -0.49245E-04   -0.49224E-04  2944   0.107E-02-0.131E-05
CGA:  13    -0.118550916332E+04   -0.95219E-04   -0.95243E-04  2944   0.421E-03-0.201E-05
CGA:  14    -0.118550920047E+04   -0.37146E-04   -0.37152E-04  2944   0.346E-03-0.287E-06
CGA:  15    -0.118550922213E+04   -0.21661E-04   -0.21671E-04  2944   0.366E-03 0.655E-06
CGA:  16    -0.118550924467E+04   -0.22537E-04   -0.22546E-04  2944   0.158E-03 0.466E-06
CGA:  17    -0.118550926355E+04   -0.18879E-04   -0.18803E-04  2944   0.124E-03 0.172E-05
CGA:  18    -0.118550927038E+04   -0.68318E-05   -0.68408E-05  2944   0.110E-03 0.392E-06
   8 F= -.11855093E+04 E0= -.11854917E+04  d E =-.695018E-02  mag=   118.0000
       N       E                     dE             d eps       ncg     rms          ort
SDA:   1    -0.118510929043E+04    0.39997E+00    0.00000E+00  2944   0.129E+01 0.000E+00
CGA:   2    -0.118527642388E+04   -0.16713E+00   -0.16991E+00  2944   0.264E+01-0.461E-01
CGA:   3    -0.118538826699E+04   -0.11184E+00   -0.11222E+00  2944   0.103E+01-0.448E-02
CGA:   4    -0.118544516717E+04   -0.56900E-01   -0.55924E-01  2944   0.390E+00-0.511E-02
CGA:   5    -0.118549984046E+04   -0.54673E-01   -0.54680E-01  2944   0.135E+00-0.809E-04
CGA:   6    -0.118550694939E+04   -0.71089E-02   -0.71389E-02  2944   0.119E+00 0.607E-04
CGA:   7    -0.118551359014E+04   -0.66408E-02   -0.66206E-02  2944   0.521E-01-0.828E-04
CGA:   8    -0.118551757015E+04   -0.39800E-02   -0.39799E-02  2944   0.122E-01 0.329E-03
CGA:   9    -0.118551840744E+04   -0.83729E-03   -0.83699E-03  2944   0.159E-01-0.171E-04
CGA:  10    -0.118551930103E+04   -0.89359E-03   -0.89501E-03  2944   0.567E-02 0.903E-05
CGA:  11    -0.118551981030E+04   -0.50927E-03   -0.50977E-03  2944   0.284E-02-0.239E-04
CGA:  12    -0.118551999869E+04   -0.18839E-03   -0.18840E-03  2944   0.305E-02-0.651E-06
CGA:  13    -0.118552016818E+04   -0.16949E-03   -0.16946E-03  2944   0.169E-02-0.220E-05
CGA:  14    -0.118552032800E+04   -0.15982E-03   -0.15974E-03  2944   0.946E-03 0.387E-05
CGA:  15    -0.118552040420E+04   -0.76203E-04   -0.76199E-04  2944   0.109E-02 0.140E-05
CGA:  16    -0.118552045894E+04   -0.54741E-04   -0.54819E-04  2944   0.667E-03 0.289E-05
CGA:  17    -0.118552053263E+04   -0.73686E-04   -0.73560E-04  2944   0.361E-03 0.351E-05
CGA:  18    -0.118552056663E+04   -0.34003E-04   -0.33984E-04  2944   0.572E-03 0.107E-05
CGA:  19    -0.118552059171E+04   -0.25076E-04   -0.25067E-04  2944   0.152E-03-0.133E-06
CGA:  20    -0.118552061635E+04   -0.24637E-04   -0.24703E-04  2944   0.192E-03-0.757E-06
CGA:  21    -0.118552062577E+04   -0.94189E-05   -0.94049E-05  2944   0.124E-03-0.499E-06
   9 F= -.11855206E+04 E0= -.11855030E+04  d E =-.113554E-01  mag=   118.0000
       N       E                     dE             d eps       ncg     rms          ort
SDA:   1    -0.118382221575E+04    0.16984E+01    0.00000E+00  2944   0.498E+01 0.000E+00
CGA:   2    -0.118485028207E+04   -0.10281E+01   -0.10331E+01  2944   0.471E+01-0.403E-01
CGA:   3    -0.118513186875E+04   -0.28159E+00   -0.28317E+00  2944   0.305E+01 0.316E-02
CGA:   4    -0.118527944080E+04   -0.14757E+00   -0.14511E+00  2944   0.214E+01 0.148E-01
CGA:   5    -0.118545315115E+04   -0.17371E+00   -0.17371E+00  2944   0.460E+00-0.887E-03
CGA:   6    -0.118548816182E+04   -0.35011E-01   -0.35036E-01  2944   0.464E+00 0.259E-02
CGA:   7    -0.118551014492E+04   -0.21983E-01   -0.21923E-01  2944   0.227E+00 0.215E-03
CGA:   8    -0.118552355229E+04   -0.13407E-01   -0.13391E-01  2944   0.431E-01-0.178E-03
CGA:   9    -0.118552778660E+04   -0.42343E-02   -0.42415E-02  2944   0.808E-01-0.247E-03
CGA:  10    -0.118553149110E+04   -0.37045E-02   -0.36966E-02  2944   0.176E-01 0.282E-04
CGA:  11    -0.118553308064E+04   -0.15895E-02   -0.15901E-02  2944   0.137E-01-0.287E-04
CGA:  12    -0.118553396175E+04   -0.88111E-03   -0.88109E-03  2944   0.140E-01-0.196E-05
CGA:  13    -0.118553473786E+04   -0.77611E-03   -0.77543E-03  2944   0.607E-02 0.157E-05
CGA:  14    -0.118553537640E+04   -0.63854E-03   -0.63849E-03  2944   0.454E-02 0.317E-05
CGA:  15    -0.118553563234E+04   -0.25594E-03   -0.25599E-03  2944   0.490E-02 0.658E-05
CGA:  16    -0.118553603434E+04   -0.40201E-03   -0.40193E-03  2944   0.285E-02 0.126E-04
CGA:  17    -0.118553629550E+04   -0.26115E-03   -0.26103E-03  2944   0.221E-02 0.739E-05
CGA:  18    -0.118553640754E+04   -0.11205E-03   -0.11206E-03  2944   0.190E-02 0.146E-07
CGA:  19    -0.118553657259E+04   -0.16504E-03   -0.16505E-03  2944   0.908E-03-0.251E-06
CGA:  20    -0.118553665764E+04   -0.85055E-04   -0.85123E-04  2944   0.115E-02-0.357E-05
CGA:  21    -0.118553671145E+04   -0.53805E-04   -0.53796E-04  2944   0.591E-03-0.617E-06
CGA:  22    -0.118553676293E+04   -0.51481E-04   -0.51480E-04  2944   0.366E-03 0.174E-06
CGA:  23    -0.118553679918E+04   -0.36246E-04   -0.36234E-04  2944   0.580E-03 0.597E-06
CGA:  24    -0.118553682587E+04   -0.26693E-04   -0.26704E-04  2944   0.212E-03 0.159E-07
CGA:  25    -0.118553684743E+04   -0.21560E-04   -0.21538E-04  2944   0.178E-03 0.903E-06
CGA:  26    -0.118553686082E+04   -0.13385E-04   -0.13385E-04  2944   0.221E-03-0.167E-06
CGA:  27    -0.118553687252E+04   -0.11700E-04   -0.11695E-04  2944   0.937E-04-0.217E-06
CGA:  28    -0.118553688180E+04   -0.92857E-05   -0.93093E-05  2944   0.557E-04-0.104E-05
  10 F= -.11855369E+04 E0= -.11855192E+04  d E =-.162560E-01  mag=   118.0000
       N       E                     dE             d eps       ncg     rms          ort
SDA:   1    -0.117561706417E+04    0.99198E+01    0.00000E+00  2944   0.274E+02 0.000E+00
CGA:   2    -0.117841449469E+04   -0.27974E+01   -0.28522E+01  2944   0.641E+02-0.517E+00
CGA:   3    -0.118211953590E+04   -0.37050E+01   -0.37230E+01  2944   0.220E+02-0.338E-01
CGA:   4    -0.118349819038E+04   -0.13787E+01   -0.13151E+01  2944   0.761E+01-0.138E+01
CGA:   5    -0.118408385397E+04   -0.58566E+00   -0.59292E+00  2944   0.708E+01-0.583E+00
CGA:   6    -0.118443156054E+04   -0.34771E+00   -0.33475E+00  2944   0.471E+01-0.375E-02
CGA:   7    -0.118460318421E+04   -0.17162E+00   -0.20313E+00  2944   0.155E+01-0.144E+00
CGA:   8    -0.118469789884E+04   -0.94715E-01   -0.95465E-01  2944   0.833E+00 0.280E-01
CGA:   9    -0.118475034202E+04   -0.52443E-01   -0.52569E-01  2944   0.532E+00 0.357E-02
CGA:  10    -0.118477630622E+04   -0.25964E-01   -0.26103E-01  2944   0.405E+00 0.342E-03
CGA:  11    -0.118479715822E+04   -0.20852E-01   -0.21219E-01  2944   0.144E+00 0.303E-02
CGA:  12    -0.118480951506E+04   -0.12357E-01   -0.12338E-01  2944   0.107E+00 0.857E-03
CGA:  13    -0.118481844144E+04   -0.89264E-02   -0.89143E-02  2944   0.919E-01 0.652E-03
CGA:  14    -0.118482298745E+04   -0.45460E-02   -0.45800E-02  2944   0.669E-01 0.118E-03
CGA:  15    -0.118482633496E+04   -0.33475E-02   -0.33610E-02  2944   0.223E-01 0.880E-04
CGA:  16    -0.118482902586E+04   -0.26909E-02   -0.26844E-02  2944   0.254E-01 0.116E-03
CGA:  17    -0.118483052979E+04   -0.15039E-02   -0.15059E-02  2944   0.153E-01 0.463E-04
CGA:  18    -0.118483122673E+04   -0.69693E-03   -0.69801E-03  2944   0.983E-02 0.984E-06
CGA:  19    -0.118483203932E+04   -0.81260E-03   -0.81253E-03  2944   0.513E-02 0.439E-05
CGA:  20    -0.118483248828E+04   -0.44896E-03   -0.44837E-03  2944   0.409E-02 0.242E-04
CGA:  21    -0.118483269571E+04   -0.20742E-03   -0.20747E-03  2944   0.314E-02-0.923E-06
CGA:  22    -0.118483289865E+04   -0.20295E-03   -0.20300E-03  2944   0.198E-02 0.383E-05
CGA:  23    -0.118483306004E+04   -0.16138E-03   -0.16133E-03  2944   0.107E-02 0.339E-05
CGA:  24    -0.118483315402E+04   -0.93985E-04   -0.93847E-04  2944   0.142E-02 0.666E-05
CGA:  25    -0.118483322619E+04   -0.72161E-04   -0.72265E-04  2944   0.911E-03 0.361E-05
CGA:  26    -0.118483329730E+04   -0.71111E-04   -0.71061E-04  2944   0.585E-03 0.551E-05
CGA:  27    -0.118483335609E+04   -0.58792E-04   -0.58760E-04  2944   0.499E-03 0.784E-06
CGA:  28    -0.118483338653E+04   -0.30438E-04   -0.30430E-04  2944   0.493E-03-0.850E-06
CGA:  29    -0.118483341418E+04   -0.27650E-04   -0.27629E-04  2944   0.280E-03-0.180E-05
CGA:  30    -0.118483343723E+04   -0.23058E-04   -0.23071E-04  2944   0.171E-03-0.151E-05
CGA:  31    -0.118483345246E+04   -0.15231E-04   -0.15254E-04  2944   0.136E-03-0.165E-05
SDA:  32    -0.118483345909E+04   -0.66241E-05   -0.66151E-05  2944   0.109E-03-0.707E-06
  11 F= -.11848335E+04 E0= -.11848147E+04  d E =0.703423E+00  mag=   118.0000
       N       E                     dE             d eps       ncg     rms          ort
SDA:   1    -0.118318462617E+04    0.16488E+01    0.00000E+00  2944   0.826E+01 0.000E+00
CGA:   2    -0.118363211934E+04   -0.44749E+00   -0.45553E+00  2944   0.113E+02 0.131E+00
CGA:   3    -0.118461421218E+04   -0.98209E+00   -0.10039E+01  2944   0.900E+01-0.835E+00
CGA:   4    -0.118514410794E+04   -0.52990E+00   -0.53137E+00  2944   0.168E+01 0.110E+00
CGA:   5    -0.118521171524E+04   -0.67607E-01   -0.65843E-01  2944   0.123E+01 0.162E-01
CGA:   6    -0.118534117876E+04   -0.12946E+00   -0.12804E+00  2944   0.517E+00 0.314E-01
CGA:   7    -0.118538900482E+04   -0.47826E-01   -0.47704E-01  2944   0.187E+00 0.378E-02
CGA:   8    -0.118539689171E+04   -0.78869E-02   -0.79591E-02  2944   0.147E+00-0.425E-03
CGA:   9    -0.118540942070E+04   -0.12529E-01   -0.12505E-01  2944   0.589E-01 0.104E-02
CGA:  10    -0.118541504485E+04   -0.56241E-02   -0.55726E-02  2944   0.359E-01 0.163E-02
CGA:  11    -0.118541718569E+04   -0.21408E-02   -0.21404E-02  2944   0.369E-01-0.460E-05
CGA:  12    -0.118541929574E+04   -0.21100E-02   -0.21138E-02  2944   0.155E-01 0.699E-04
CGA:  13    -0.118542075713E+04   -0.14614E-02   -0.14595E-02  2944   0.914E-02 0.561E-04
CGA:  14    -0.118542169087E+04   -0.93375E-03   -0.93210E-03  2944   0.557E-02 0.409E-04
CGA:  15    -0.118542196506E+04   -0.27419E-03   -0.27420E-03  2944   0.545E-02-0.105E-05
CGA:  16    -0.118542240834E+04   -0.44328E-03   -0.44296E-03  2944   0.214E-02 0.210E-04
CGA:  17    -0.118542265431E+04   -0.24597E-03   -0.24532E-03  2944   0.104E-02 0.143E-04
CGA:  18    -0.118542274455E+04   -0.90240E-04   -0.90193E-04  2944   0.123E-02 0.362E-05
CGA:  19    -0.118542279183E+04   -0.47286E-04   -0.47437E-04  2944   0.437E-03 0.226E-05
CGA:  20    -0.118542285986E+04   -0.68026E-04   -0.67552E-04  2944   0.195E-03 0.577E-05
CGA:  21    -0.118542287518E+04   -0.15321E-04   -0.15320E-04  2944   0.189E-03 0.536E-06
CGA:  22    -0.118542288739E+04   -0.12215E-04   -0.12205E-04  2944   0.223E-03-0.890E-06
CGA:  23    -0.118542290135E+04   -0.13955E-04   -0.13936E-04  2944   0.641E-04-0.146E-05
CGA:  24    -0.118542291201E+04   -0.10658E-04   -0.10714E-04  2944   0.608E-04-0.658E-06
CGA:  25    -0.118542291787E+04   -0.58662E-05   -0.58668E-05  2944   0.637E-04-0.859E-07
  12 F= -.11854229E+04 E0= -.11854053E+04  d E =-.589459E+00  mag=   118.0000
       N       E                     dE             d eps       ncg     rms          ort
SDA:   1    -0.118494225893E+04    0.48065E+00    0.00000E+00  2944   0.247E+01 0.000E+00
CGA:   2    -0.118504721735E+04   -0.10496E+00   -0.10661E+00  2944   0.256E+01-0.174E-01
CGA:   3    -0.118534944154E+04   -0.30222E+00   -0.30576E+00  2944   0.181E+01-0.739E-01
CGA:   4    -0.118546806923E+04   -0.11863E+00   -0.11792E+00  2944   0.328E+00-0.171E-01
CGA:   5    -0.118549840610E+04   -0.30337E-01   -0.30293E-01  2944   0.353E+00 0.195E-02
CGA:   6    -0.118551352307E+04   -0.15117E-01   -0.15127E-01  2944   0.193E+00-0.103E-03
CGA:   7    -0.118552899607E+04   -0.15473E-01   -0.15479E-01  2944   0.536E-01-0.121E-02
CGA:   8    -0.118553204435E+04   -0.30483E-02   -0.30458E-02  2944   0.381E-01-0.534E-05
CGA:   9    -0.118553397092E+04   -0.19266E-02   -0.19252E-02  2944   0.225E-01 0.100E-04
CGA:  10    -0.118553594459E+04   -0.19737E-02   -0.19743E-02  2944   0.108E-01-0.346E-04
CGA:  11    -0.118553665884E+04   -0.71425E-03   -0.71388E-03  2944   0.120E-01-0.114E-04
CGA:  12    -0.118553727510E+04   -0.61626E-03   -0.61703E-03  2944   0.349E-02-0.140E-05
CGA:  13    -0.118553768751E+04   -0.41241E-03   -0.41241E-03  2944   0.474E-02-0.117E-05
CGA:  14    -0.118553790733E+04   -0.21983E-03   -0.21996E-03  2944   0.250E-02-0.297E-05
CGA:  15    -0.118553805621E+04   -0.14887E-03   -0.14892E-03  2944   0.894E-03 0.211E-05
CGA:  16    -0.118553815531E+04   -0.99101E-04   -0.98938E-04  2944   0.145E-02 0.421E-05
CGA:  17    -0.118553821900E+04   -0.63692E-04   -0.63815E-04  2944   0.538E-03 0.336E-05
CGA:  18    -0.118553826414E+04   -0.45137E-04   -0.45107E-04  2944   0.301E-03 0.318E-05
CGA:  19    -0.118553828224E+04   -0.18103E-04   -0.18121E-04  2944   0.252E-03 0.113E-05
CGA:  20    -0.118553829555E+04   -0.13309E-04   -0.13314E-04  2944   0.121E-03 0.103E-06
CGA:  21    -0.118553830995E+04   -0.14399E-04   -0.14369E-04  2944   0.110E-03 0.552E-06
CGA:  22    -0.118553831456E+04   -0.46137E-05   -0.46064E-05  2944   0.574E-04-0.295E-06
  13 F= -.11855383E+04 E0= -.11855208E+04  d E =-.115397E+00  mag=   118.0000
       N       E                     dE             d eps       ncg     rms          ort
SDA:   1    -0.118542146119E+04    0.11685E+00    0.00000E+00  2944   0.342E+00 0.000E+00
CGA:   2    -0.118547349553E+04   -0.52034E-01   -0.51883E-01  2944   0.119E+01 0.207E-02
CGA:   3    -0.118552329870E+04   -0.49803E-01   -0.49697E-01  2944   0.201E+00 0.644E-03
CGA:   4    -0.118553957430E+04   -0.16276E-01   -0.16245E-01  2944   0.664E-01 0.354E-02
CGA:   5    -0.118554687310E+04   -0.72988E-02   -0.72858E-02  2944   0.472E-01 0.343E-03
CGA:   6    -0.118555080306E+04   -0.39300E-02   -0.39308E-02  2944   0.348E-01-0.609E-04
CGA:   7    -0.118555188121E+04   -0.10781E-02   -0.10834E-02  2944   0.932E-02-0.855E-04
CGA:   8    -0.118555276841E+04   -0.88720E-03   -0.88598E-03  2944   0.502E-02 0.472E-04
CGA:   9    -0.118555326799E+04   -0.49959E-03   -0.49996E-03  2944   0.230E-02-0.127E-04
CGA:  10    -0.118555352420E+04   -0.25621E-03   -0.25620E-03  2944   0.221E-02-0.301E-06
CGA:  11    -0.118555360913E+04   -0.84934E-04   -0.84840E-04  2944   0.126E-02-0.198E-05
CGA:  12    -0.118555371849E+04   -0.10935E-03   -0.10936E-03  2944   0.719E-03-0.854E-06
CGA:  13    -0.118555379674E+04   -0.78250E-04   -0.78158E-04  2944   0.260E-03 0.286E-05
CGA:  14    -0.118555382693E+04   -0.30192E-04   -0.30064E-04  2944   0.269E-03 0.357E-05
CGA:  15    -0.118555384542E+04   -0.18492E-04   -0.18534E-04  2944   0.298E-03 0.308E-05
CGA:  16    -0.118555385826E+04   -0.12835E-04   -0.12933E-04  2944   0.788E-04 0.274E-05
CGA:  17    -0.118555386735E+04   -0.90957E-05   -0.90560E-05  2944   0.419E-04 0.114E-05
  14 F= -.11855539E+04 E0= -.11855363E+04  d E =-.155528E-01  mag=   118.0000
       N       E                     dE             d eps       ncg     rms          ort
SDA:   1    -0.118553880221E+04    0.15056E-01    0.00000E+00  2944   0.940E-01 0.000E+00
CGA:   2    -0.118554202606E+04   -0.32238E-02   -0.32174E-02  2944   0.651E-01 0.641E-04
CGA:   3    -0.118555117838E+04   -0.91523E-02   -0.91630E-02  2944   0.468E-01-0.175E-03
CGA:   4    -0.118555428357E+04   -0.31052E-02   -0.31087E-02  2944   0.106E-01 0.344E-04
CGA:   5    -0.118555571855E+04   -0.14350E-02   -0.14313E-02  2944   0.700E-02 0.673E-04
CGA:   6    -0.118555626185E+04   -0.54330E-03   -0.54351E-03  2944   0.313E-02 0.301E-04
CGA:   7    -0.118555642436E+04   -0.16251E-03   -0.16296E-03  2944   0.276E-02 0.123E-04
CGA:   8    -0.118555655931E+04   -0.13495E-03   -0.13529E-03  2944   0.590E-03 0.958E-05
CGA:   9    -0.118555663616E+04   -0.76851E-04   -0.76670E-04  2944   0.359E-03 0.370E-05
CGA:  10    -0.118555666446E+04   -0.28300E-04   -0.28303E-04  2944   0.228E-03 0.841E-06
CGA:  11    -0.118555667540E+04   -0.10946E-04   -0.10954E-04  2944   0.218E-03 0.106E-06
CGA:  12    -0.118555669538E+04   -0.19975E-04   -0.19984E-04  2944   0.701E-04-0.763E-06
CGA:  13    -0.118555670280E+04   -0.74253E-05   -0.74004E-05  2944   0.481E-04 0.102E-05
  15 F= -.11855567E+04 E0= -.11855391E+04  d E =-.283545E-02  mag=   118.0000
       N       E                     dE             d eps       ncg     rms          ort
SDA:   1    -0.118553002661E+04    0.26669E-01    0.00000E+00  2944   0.225E+00 0.000E+00
CGA:   2    -0.118553617833E+04   -0.61517E-02   -0.62309E-02  2944   0.896E-01-0.238E-02
CGA:   3    -0.118554962902E+04   -0.13451E-01   -0.13475E-01  2944   0.872E-01-0.323E-03
CGA:   4    -0.118555506608E+04   -0.54371E-02   -0.54479E-02  2944   0.182E-01 0.468E-04
CGA:   5    -0.118555730980E+04   -0.22437E-02   -0.22402E-02  2944   0.249E-01 0.796E-04
CGA:   6    -0.118555822914E+04   -0.91934E-03   -0.92123E-03  2944   0.938E-02 0.304E-05
CGA:   7    -0.118555878299E+04   -0.55385E-03   -0.55498E-03  2944   0.254E-02 0.277E-04
CGA:   8    -0.118555911718E+04   -0.33419E-03   -0.33336E-03  2944   0.138E-02 0.169E-04
CGA:   9    -0.118555918139E+04   -0.64213E-04   -0.64423E-04  2944   0.106E-02 0.363E-05
CGA:  10    -0.118555924121E+04   -0.59818E-04   -0.59853E-04  2944   0.426E-03 0.264E-05
CGA:  11    -0.118555928775E+04   -0.46541E-04   -0.46516E-04  2944   0.239E-03 0.784E-06
CGA:  12    -0.118555930805E+04   -0.20300E-04   -0.20301E-04  2944   0.336E-03 0.237E-07
CGA:  13    -0.118555932239E+04   -0.14338E-04   -0.14360E-04  2944   0.113E-03 0.688E-06
CGA:  14    -0.118555933298E+04   -0.10588E-04   -0.10575E-04  2944   0.756E-04 0.892E-06
CGA:  15    -0.118555934166E+04   -0.86863E-05   -0.86187E-05  2944   0.755E-04 0.207E-05
  16 F= -.11855593E+04 E0= -.11855417E+04  d E =-.263886E-02  mag=   118.0000
       N       E                     dE             d eps       ncg     rms          ort
SDA:   1    -0.118555101225E+04    0.83207E-02    0.00000E+00  2944   0.878E-01 0.000E+00
CGA:   2    -0.118555323518E+04   -0.22229E-02   -0.22335E-02  2944   0.273E-01-0.357E-03
CGA:   3    -0.118555819457E+04   -0.49594E-02   -0.49640E-02  2944   0.148E-01-0.399E-04
CGA:   4    -0.118555936059E+04   -0.11660E-02   -0.11657E-02  2944   0.802E-02-0.341E-04
CGA:   5    -0.118556002892E+04   -0.66833E-03   -0.66835E-03  2944   0.843E-02-0.617E-05
CGA:   6    -0.118556033868E+04   -0.30976E-03   -0.31017E-03  2944   0.270E-02 0.374E-05
CGA:   7    -0.118556054501E+04   -0.20633E-03   -0.20635E-03  2944   0.827E-03 0.591E-05
CGA:   8    -0.118556063031E+04   -0.85302E-04   -0.85190E-04  2944   0.488E-03 0.470E-05
CGA:   9    -0.118556065560E+04   -0.25287E-04   -0.25315E-04  2944   0.454E-03 0.975E-06
CGA:  10    -0.118556068080E+04   -0.25203E-04   -0.25182E-04  2944   0.119E-03-0.214E-06
CGA:  11    -0.118556069404E+04   -0.13235E-04   -0.13242E-04  2944   0.109E-03-0.213E-06
CGA:  12    -0.118556070449E+04   -0.10457E-04   -0.10468E-04  2944   0.131E-03-0.704E-06
CGA:  13    -0.118556070894E+04   -0.44513E-05   -0.44546E-05  2944   0.356E-04-0.154E-07
  17 F= -.11855607E+04 E0= -.11855431E+04  d E =-.136728E-02  mag=   118.0000
       N       E                     dE             d eps       ncg     rms          ort
SDA:   1    -0.118528228145E+04    0.27842E+00    0.00000E+00  2944   0.863E+00 0.000E+00
CGA:   2    -0.118542885061E+04   -0.14657E+00   -0.14630E+00  2944   0.196E+01 0.342E-02
CGA:   3    -0.118548981372E+04   -0.60963E-01   -0.60192E-01  2944   0.333E+00 0.144E-01
CGA:   4    -0.118553230327E+04   -0.42490E-01   -0.42011E-01  2944   0.251E+00 0.981E-02
CGA:   5    -0.118555290140E+04   -0.20598E-01   -0.20608E-01  2944   0.915E-01 0.533E-03
CGA:   6    -0.118556092229E+04   -0.80209E-02   -0.80211E-02  2944   0.523E-01-0.333E-03
CGA:   7    -0.118556288732E+04   -0.19650E-02   -0.19575E-02  2944   0.296E-01 0.130E-03
CGA:   8    -0.118556509361E+04   -0.22063E-02   -0.22060E-02  2944   0.858E-02-0.117E-04
CGA:   9    -0.118556604509E+04   -0.95147E-03   -0.95162E-03  2944   0.459E-02-0.542E-05
CGA:  10    -0.118556635626E+04   -0.31118E-03   -0.31114E-03  2944   0.634E-02-0.538E-05
CGA:  11    -0.118556669087E+04   -0.33461E-03   -0.33451E-03  2944   0.195E-02-0.323E-05
CGA:  12    -0.118556687685E+04   -0.18598E-03   -0.18596E-03  2944   0.141E-02 0.105E-05
CGA:  13    -0.118556702400E+04   -0.14715E-03   -0.14710E-03  2944   0.134E-02 0.266E-05
CGA:  14    -0.118556708527E+04   -0.61275E-04   -0.61372E-04  2944   0.113E-02 0.104E-05
CGA:  15    -0.118556719526E+04   -0.10999E-03   -0.10986E-03  2944   0.493E-03 0.769E-05
CGA:  16    -0.118556726290E+04   -0.67641E-04   -0.67724E-04  2944   0.555E-03-0.137E-05
CGA:  17    -0.118556729947E+04   -0.36571E-04   -0.36564E-04  2944   0.616E-03-0.136E-06
CGA:  18    -0.118556732805E+04   -0.28575E-04   -0.28535E-04  2944   0.195E-03-0.915E-06
CGA:  19    -0.118556735386E+04   -0.25816E-04   -0.25925E-04  2944   0.144E-03-0.213E-05
CGA:  20    -0.118556736595E+04   -0.12085E-04   -0.12084E-04  2944   0.188E-03-0.543E-06
CGA:  21    -0.118556737481E+04   -0.88626E-05   -0.88665E-05  2944   0.102E-03 0.155E-06
  18 F= -.11855674E+04 E0= -.11855498E+04  d E =-.666587E-02  mag=   118.0000
       N       E                     dE             d eps       ncg     rms          ort
SDA:   1    -0.118534505192E+04    0.22231E+00    0.00000E+00  2944   0.749E+00 0.000E+00
CGA:   2    -0.118544502253E+04   -0.99971E-01   -0.10062E+00  2944   0.996E+00-0.110E-01
CGA:   3    -0.118551964207E+04   -0.74620E-01   -0.74745E-01  2944   0.316E+00 0.479E-02
CGA:   4    -0.118553304203E+04   -0.13400E-01   -0.13295E-01  2944   0.279E+00 0.115E-02
CGA:   5    -0.118556143479E+04   -0.28393E-01   -0.28415E-01  2944   0.646E-01-0.794E-03
CGA:   6    -0.118556697710E+04   -0.55423E-02   -0.55410E-02  2944   0.344E-01 0.378E-03
CGA:   7    -0.118556910755E+04   -0.21305E-02   -0.21294E-02  2944   0.369E-01-0.976E-05
CGA:   8    -0.118557070339E+04   -0.15958E-02   -0.15976E-02  2944   0.527E-02-0.241E-04
CGA:   9    -0.118557146013E+04   -0.75675E-03   -0.75479E-03  2944   0.416E-02 0.285E-04
CGA:  10    -0.118557176657E+04   -0.30644E-03   -0.30639E-03  2944   0.424E-02-0.361E-05
CGA:  11    -0.118557193332E+04   -0.16675E-03   -0.16611E-03  2944   0.152E-02 0.388E-05
CGA:  12    -0.118557210000E+04   -0.16668E-03   -0.16677E-03  2944   0.107E-02-0.244E-05
CGA:  13    -0.118557221021E+04   -0.11020E-03   -0.11013E-03  2944   0.898E-03 0.324E-05
CGA:  14    -0.118557226932E+04   -0.59109E-04   -0.59160E-04  2944   0.110E-02 0.235E-05
CGA:  15    -0.118557232705E+04   -0.57737E-04   -0.57768E-04  2944   0.445E-03 0.114E-05
CGA:  16    -0.118557239126E+04   -0.64209E-04   -0.64039E-04  2944   0.344E-03 0.275E-05
CGA:  17    -0.118557242339E+04   -0.32131E-04   -0.32141E-04  2944   0.435E-03-0.116E-05
CGA:  18    -0.118557244136E+04   -0.17963E-04   -0.17943E-04  2944   0.201E-03-0.569E-06
CGA:  19    -0.118557245819E+04   -0.16832E-04   -0.16832E-04  2944   0.107E-03-0.105E-05
CGA:  20    -0.118557247511E+04   -0.16924E-04   -0.16963E-04  2944   0.999E-04-0.516E-06
CGA:  21    -0.118557247885E+04   -0.37377E-05   -0.37290E-05  2944   0.622E-04-0.166E-06
  19 F= -.11855725E+04 E0= -.11855549E+04  d E =-.510404E-02  mag=   118.0000
       N       E                     dE             d eps       ncg     rms          ort
SDA:   1    -0.117001288605E+04    0.15560E+02    0.00000E+00  2944   0.493E+02 0.000E+00
CGA:   2    -0.117804974534E+04   -0.80369E+01   -0.77046E+01  2944   0.446E+02 0.504E+01
CGA:   3    -0.118190656005E+04   -0.38568E+01   -0.39060E+01  2944   0.299E+02 0.174E+01
CGA:   4    -0.118268636228E+04   -0.77980E+00   -0.13364E+01  2944   0.302E+02-0.716E+01
CGA:   5    -0.118442602985E+04   -0.17397E+01   -0.16081E+01  2944   0.193E+02-0.240E+01
CGA:   6    -0.118476358000E+04   -0.33755E+00   -0.36747E+00  2944   0.609E+01-0.155E+01
CGA:   7    -0.118509673345E+04   -0.33315E+00   -0.35313E+00  2944   0.423E+01 0.238E+00
CGA:   8    -0.118524178533E+04   -0.14505E+00   -0.15347E+00  2944   0.368E+01-0.159E+00
CGA:   9    -0.118540256824E+04   -0.16078E+00   -0.15689E+00  2944   0.154E+01 0.160E-01
CGA:  10    -0.118544217368E+04   -0.39605E-01   -0.38971E-01  2944   0.823E+00 0.166E-01
CGA:  11    -0.118548880404E+04   -0.46630E-01   -0.47079E-01  2944   0.571E+00 0.468E-02
CGA:  12    -0.118551189880E+04   -0.23095E-01   -0.23561E-01  2944   0.660E+00-0.422E-02
CGA:  13    -0.118554085483E+04   -0.28956E-01   -0.29306E-01  2944   0.237E+00-0.199E-02
CGA:  14    -0.118554959461E+04   -0.87398E-02   -0.88061E-02  2944   0.225E+00-0.714E-03
CGA:  15    -0.118556032428E+04   -0.10730E-01   -0.10858E-01  2944   0.987E-01 0.580E-03
CGA:  16    -0.118556620170E+04   -0.58774E-02   -0.58895E-02  2944   0.149E+00 0.535E-03
CGA:  17    -0.118557213042E+04   -0.59287E-02   -0.59760E-02  2944   0.613E-01-0.304E-03
CGA:  18    -0.118557659856E+04   -0.44681E-02   -0.44624E-02  2944   0.736E-01 0.519E-03
CGA:  19    -0.118557886297E+04   -0.22644E-02   -0.22677E-02  2944   0.289E-01-0.134E-04
CGA:  20    -0.118558186631E+04   -0.30033E-02   -0.29927E-02  2944   0.395E-01 0.243E-03
CGA:  21    -0.118558337964E+04   -0.15133E-02   -0.15189E-02  2944   0.301E-01-0.227E-04
CGA:  22    -0.118558531203E+04   -0.19324E-02   -0.19325E-02  2944   0.136E-01 0.107E-03
CGA:  23    -0.118558612899E+04   -0.81696E-03   -0.81760E-03  2944   0.221E-01 0.527E-04
CGA:  24    -0.118558731113E+04   -0.11821E-02   -0.11826E-02  2944   0.948E-02 0.957E-05
CGA:  25    -0.118558816674E+04   -0.85561E-03   -0.85845E-03  2944   0.143E-01-0.859E-04
CGA:  26    -0.118558864840E+04   -0.48165E-03   -0.48221E-03  2944   0.616E-02-0.353E-05
CGA:  27    -0.118558917442E+04   -0.52602E-03   -0.52549E-03  2944   0.483E-02 0.188E-04
CGA:  28    -0.118558939725E+04   -0.22283E-03   -0.22284E-03  2944   0.564E-02 0.120E-05
CGA:  29    -0.118558979395E+04   -0.39669E-03   -0.39661E-03  2944   0.270E-02 0.108E-04
CGA:  30    -0.118558995987E+04   -0.16593E-03   -0.16595E-03  2944   0.350E-02 0.408E-05
CGA:  31    -0.118559009635E+04   -0.13648E-03   -0.13636E-03  2944   0.134E-02-0.407E-07
SDA:  32    -0.118559023171E+04   -0.13536E-03   -0.13553E-03  2944   0.204E-02-0.416E-05
CGA:  33    -0.118559027977E+04   -0.48060E-04   -0.48107E-04  2944   0.479E-03-0.257E-05
CGA:  34    -0.118559033739E+04   -0.57618E-04   -0.57989E-04  2944   0.679E-03-0.636E-05
CGA:  35    -0.118559040681E+04   -0.69424E-04   -0.69680E-04  2944   0.271E-03-0.669E-05
CGA:  36    -0.118559043549E+04   -0.28676E-04   -0.28792E-04  2944   0.149E-03-0.289E-05
CGA:  37    -0.118559044477E+04   -0.92801E-05   -0.92731E-05  2944   0.262E-03-0.108E-05
CGA:  38    -0.118559046722E+04   -0.22453E-04   -0.22481E-04  2944   0.143E-03-0.163E-05
CGA:  39    -0.118559048545E+04   -0.18225E-04   -0.18317E-04  2944   0.728E-04-0.157E-05
CGA:  40    -0.118559049292E+04   -0.74716E-05   -0.75290E-05  2944   0.680E-04-0.183E-05
  20 F= -.11855905E+04 E0= -.11855729E+04  d E =-.180141E-01  mag=   118.0000
       N       E                     dE             d eps       ncg     rms          ort
SDA:   1    -0.117954564199E+04    0.60448E+01    0.00000E+00  2944   0.235E+02 0.000E+00
CGA:   2    -0.118063377242E+04   -0.10881E+01   -0.11127E+01  2944   0.277E+02-0.257E+00
CGA:   3    -0.118331278716E+04   -0.26790E+01   -0.27085E+01  2944   0.184E+02-0.691E+00
CGA:   4    -0.118426360510E+04   -0.95082E+00   -0.96382E+00  2944   0.841E+01-0.261E+00
CGA:   5    -0.118453137482E+04   -0.26777E+00   -0.22780E+00  2944   0.432E+01 0.972E+00
CGA:   6    -0.118486505760E+04   -0.33368E+00   -0.33359E+00  2944   0.573E+01-0.172E-01
CGA:   7    -0.118501681856E+04   -0.15176E+00   -0.15156E+00  2944   0.203E+01 0.825E-02
CGA:   8    -0.118511154609E+04   -0.94728E-01   -0.95675E-01  2944   0.137E+01-0.477E-02
CGA:   9    -0.118514902164E+04   -0.37476E-01   -0.38600E-01  2944   0.788E+00-0.256E-01
CGA:  10    -0.118519204643E+04   -0.43025E-01   -0.43659E-01  2944   0.654E+00 0.195E-01
CGA:  11    -0.118521182209E+04   -0.19776E-01   -0.19900E-01  2944   0.276E+00-0.183E-02
CGA:  12    -0.118523000883E+04   -0.18187E-01   -0.18201E-01  2944   0.143E+00-0.493E-02
CGA:  13    -0.118523590662E+04   -0.58978E-02   -0.59098E-02  2944   0.124E+00-0.295E-04
CGA:  14    -0.118524168204E+04   -0.57754E-02   -0.58297E-02  2944   0.628E-01 0.594E-03
CGA:  15    -0.118524694942E+04   -0.52674E-02   -0.52467E-02  2944   0.751E-01 0.761E-03
CGA:  16    -0.118524930488E+04   -0.23555E-02   -0.23665E-02  2944   0.290E-01-0.155E-03
CGA:  17    -0.118525186933E+04   -0.25644E-02   -0.25508E-02  2944   0.219E-01 0.413E-03
CGA:  18    -0.118525287159E+04   -0.10023E-02   -0.10025E-02  2944   0.206E-01-0.372E-05
CGA:  19    -0.118525395693E+04   -0.10853E-02   -0.10863E-02  2944   0.948E-02 0.266E-04
CGA:  20    -0.118525475335E+04   -0.79642E-03   -0.79588E-03  2944   0.103E-01 0.167E-04
CGA:  21    -0.118525511862E+04   -0.36527E-03   -0.36475E-03  2944   0.556E-02-0.153E-05
CGA:  22    -0.118525552169E+04   -0.40307E-03   -0.40309E-03  2944   0.266E-02-0.314E-05
CGA:  23    -0.118525570215E+04   -0.18047E-03   -0.18043E-03  2944   0.422E-02 0.529E-05
CGA:  24    -0.118525590218E+04   -0.20003E-03   -0.20025E-03  2944   0.181E-02 0.718E-05
CGA:  25    -0.118525604288E+04   -0.14070E-03   -0.14062E-03  2944   0.136E-02 0.492E-05
CGA:  26    -0.118525611230E+04   -0.69415E-04   -0.69453E-04  2944   0.160E-02 0.277E-05
CGA:  27    -0.118525620734E+04   -0.95037E-04   -0.95049E-04  2944   0.583E-03 0.283E-05
CGA:  28    -0.118525627001E+04   -0.62675E-04   -0.62659E-04  2944   0.142E-02 0.157E-06
CGA:  29    -0.118525632400E+04   -0.53987E-04   -0.54008E-04  2944   0.418E-03 0.867E-06
CGA:  30    -0.118525635512E+04   -0.31119E-04   -0.31090E-04  2944   0.379E-03 0.228E-05
CGA:  31    -0.118525637854E+04   -0.23425E-04   -0.23427E-04  2944   0.531E-03 0.122E-05
SDA:  32    -0.118525640412E+04   -0.25582E-04   -0.25606E-04  2944   0.143E-03 0.183E-05
CGA:  33    -0.118525641519E+04   -0.11071E-04   -0.11080E-04  2944   0.107E-03-0.701E-06
CGA:  34    -0.118525642489E+04   -0.96928E-05   -0.97501E-05  2944   0.145E-03-0.214E-05
  21 F= -.11852564E+04 E0= -.11852389E+04  d E =0.334068E+00  mag=   118.0000
       N       E                     dE             d eps       ncg     rms          ort
SDA:   1    -0.118480515808E+04    0.45126E+00    0.00000E+00  2944   0.254E+01 0.000E+00
CGA:   2    -0.118492625199E+04   -0.12109E+00   -0.12203E+00  2944   0.334E+01 0.930E-02
CGA:   3    -0.118528458064E+04   -0.35833E+00   -0.36342E+00  2944   0.269E+01-0.104E+00
CGA:   4    -0.118541450552E+04   -0.12992E+00   -0.13221E+00  2944   0.343E+00 0.340E-01
CGA:   5    -0.118545587006E+04   -0.41365E-01   -0.41712E-01  2944   0.321E+00-0.620E-02
CGA:   6    -0.118547884459E+04   -0.22975E-01   -0.22992E-01  2944   0.275E+00-0.175E-02
CGA:   7    -0.118548763633E+04   -0.87917E-02   -0.89420E-02  2944   0.615E-01-0.239E-02
CGA:   8    -0.118549358948E+04   -0.59532E-02   -0.59637E-02  2944   0.304E-01-0.270E-03
CGA:   9    -0.118549578050E+04   -0.21910E-02   -0.21912E-02  2944   0.273E-01-0.147E-04
CGA:  10    -0.118549707043E+04   -0.12899E-02   -0.12891E-02  2944   0.189E-01-0.232E-05
CGA:  11    -0.118549835732E+04   -0.12869E-02   -0.12868E-02  2944   0.562E-02 0.531E-04
CGA:  12    -0.118549894799E+04   -0.59067E-03   -0.59203E-03  2944   0.755E-02-0.311E-04
CGA:  13    -0.118549932352E+04   -0.37553E-03   -0.37556E-03  2944   0.525E-02 0.362E-05
CGA:  14    -0.118549959936E+04   -0.27584E-03   -0.27549E-03  2944   0.170E-02-0.309E-05
CGA:  15    -0.118549979829E+04   -0.19893E-03   -0.19913E-03  2944   0.134E-02-0.386E-05
CGA:  16    -0.118549985948E+04   -0.61185E-04   -0.61192E-04  2944   0.122E-02-0.367E-06
CGA:  17    -0.118549996476E+04   -0.10528E-03   -0.10518E-03  2944   0.457E-03 0.455E-05
CGA:  18    -0.118550000097E+04   -0.36211E-04   -0.36195E-04  2944   0.366E-03 0.150E-05
CGA:  19    -0.118550001728E+04   -0.16310E-04   -0.16342E-04  2944   0.234E-03 0.106E-05
CGA:  20    -0.118550003353E+04   -0.16248E-04   -0.16248E-04  2944   0.122E-03 0.489E-06
CGA:  21    -0.118550004577E+04   -0.12241E-04   -0.12184E-04  2944   0.112E-03 0.168E-05
CGA:  22    -0.118550005111E+04   -0.53446E-05   -0.53577E-05  2944   0.742E-04 0.417E-06
  22 F= -.11855001E+04 E0= -.11854826E+04  d E =-.243626E+00  mag=   118.0000
       N       E                     dE             d eps       ncg     rms          ort
SDA:   1    -0.118536490520E+04    0.13514E+00    0.00000E+00  2944   0.686E+00 0.000E+00
CGA:   2    -0.118540204535E+04   -0.37140E-01   -0.37250E-01  2944   0.108E+01 0.188E-02
CGA:   3    -0.118551079317E+04   -0.10875E+00   -0.10913E+00  2944   0.595E+00-0.970E-02
CGA:   4    -0.118554260081E+04   -0.31808E-01   -0.32088E-01  2944   0.104E+00 0.459E-02
CGA:   5    -0.118555498514E+04   -0.12384E-01   -0.12336E-01  2944   0.980E-01 0.881E-03
CGA:   6    -0.118555999025E+04   -0.50051E-02   -0.49987E-02  2944   0.840E-01-0.654E-06
CGA:   7    -0.118556374721E+04   -0.37570E-02   -0.37768E-02  2944   0.175E-01 0.260E-05
CGA:   8    -0.118556553114E+04   -0.17839E-02   -0.17818E-02  2944   0.736E-02 0.561E-04
CGA:   9    -0.118556625898E+04   -0.72783E-03   -0.72858E-03  2944   0.564E-02-0.209E-04
CGA:  10    -0.118556659872E+04   -0.33975E-03   -0.33987E-03  2944   0.633E-02 0.398E-05
CGA:  11    -0.118556687351E+04   -0.27478E-03   -0.27455E-03  2944   0.134E-02-0.466E-06
CGA:  12    -0.118556712419E+04   -0.25068E-03   -0.24991E-03  2944   0.958E-03 0.661E-05
CGA:  13    -0.118556720600E+04   -0.81811E-04   -0.81796E-04  2944   0.570E-03 0.135E-05
CGA:  14    -0.118556726892E+04   -0.62915E-04   -0.62804E-04  2944   0.264E-03 0.323E-05
CGA:  15    -0.118556729364E+04   -0.24725E-04   -0.24706E-04  2944   0.543E-03 0.111E-05
CGA:  16    -0.118556731783E+04   -0.24191E-04   -0.24262E-04  2944   0.141E-03 0.186E-05
CGA:  17    -0.118556732861E+04   -0.10776E-04   -0.10776E-04  2944   0.601E-04 0.871E-06
CGA:  18    -0.118556733666E+04   -0.80531E-05   -0.80433E-05  2944   0.437E-04 0.125E-06
  23 F= -.11855673E+04 E0= -.11855498E+04  d E =-.672855E-01  mag=   118.0000
       N       E                     dE             d eps       ncg     rms          ort
SDA:   1    -0.118538507644E+04    0.18225E+00    0.00000E+00  2944   0.556E+00 0.000E+00
CGA:   2    -0.118547040089E+04   -0.85324E-01   -0.84879E-01  2944   0.134E+01 0.663E-02
CGA:   3    -0.118553377403E+04   -0.63373E-01   -0.62881E-01  2944   0.750E+00 0.199E-02
CGA:   4    -0.118556575458E+04   -0.31981E-01   -0.31980E-01  2944   0.117E+00 0.185E-03
CGA:   5    -0.118558078438E+04   -0.15030E-01   -0.14950E-01  2944   0.797E-01 0.141E-02
CGA:   6    -0.118558717263E+04   -0.63882E-02   -0.63915E-02  2944   0.521E-01 0.554E-03
CGA:   7    -0.118558915101E+04   -0.19784E-02   -0.19693E-02  2944   0.288E-01 0.176E-03
CGA:   8    -0.118559088267E+04   -0.17317E-02   -0.17360E-02  2944   0.871E-02 0.538E-04
CGA:   9    -0.118559186942E+04   -0.98674E-03   -0.98590E-03  2944   0.450E-02 0.216E-04
CGA:  10    -0.118559236128E+04   -0.49187E-03   -0.49169E-03  2944   0.295E-02 0.457E-05
CGA:  11    -0.118559248041E+04   -0.11913E-03   -0.11929E-03  2944   0.243E-02-0.746E-06
CGA:  12    -0.118559269670E+04   -0.21629E-03   -0.21632E-03  2944   0.143E-02-0.138E-05
CGA:  13    -0.118559282371E+04   -0.12701E-03   -0.12698E-03  2944   0.434E-03 0.325E-05
CGA:  14    -0.118559288951E+04   -0.65798E-04   -0.65569E-04  2944   0.436E-03 0.329E-05
CGA:  15    -0.118559291426E+04   -0.24750E-04   -0.24807E-04  2944   0.459E-03 0.212E-05
CGA:  16    -0.118559293621E+04   -0.21954E-04   -0.22056E-04  2944   0.175E-03 0.288E-05
CGA:  17    -0.118559295271E+04   -0.16499E-04   -0.16480E-04  2944   0.583E-04 0.160E-05
CGA:  18    -0.118559296148E+04   -0.87729E-05   -0.87169E-05  2944   0.627E-04 0.831E-06
  24 F= -.11855930E+04 E0= -.11855754E+04  d E =-.256248E-01  mag=   118.0000
       N       E                     dE             d eps       ncg     rms          ort
SDA:   1    -0.118558158982E+04    0.11363E-01    0.00000E+00  2944   0.644E-01 0.000E+00
CGA:   2    -0.118558435556E+04   -0.27657E-02   -0.27833E-02  2944   0.602E-01-0.253E-03
CGA:   3    -0.118558897505E+04   -0.46195E-02   -0.46200E-02  2944   0.564E-01 0.381E-05
CGA:   4    -0.118559293719E+04   -0.39621E-02   -0.39612E-02  2944   0.908E-02-0.615E-04
CGA:   5    -0.118559419023E+04   -0.12530E-02   -0.12568E-02  2944   0.543E-02-0.570E-04
CGA:   6    -0.118559461261E+04   -0.42238E-03   -0.42265E-03  2944   0.515E-02 0.317E-04
CGA:   7    -0.118559478253E+04   -0.16993E-03   -0.17053E-03  2944   0.152E-02 0.702E-05
CGA:   8    -0.118559491106E+04   -0.12853E-03   -0.12852E-03  2944   0.626E-03 0.663E-05
CGA:   9    -0.118559497696E+04   -0.65897E-04   -0.65815E-04  2944   0.358E-03 0.376E-05
CGA:  10    -0.118559499096E+04   -0.14005E-04   -0.14049E-04  2944   0.221E-03 0.631E-06
CGA:  11    -0.118559500518E+04   -0.14216E-04   -0.14214E-04  2944   0.140E-03-0.862E-07
CGA:  12    -0.118559502160E+04   -0.16417E-04   -0.16405E-04  2944   0.632E-04 0.357E-06
CGA:  13    -0.118559502593E+04   -0.43305E-05   -0.43320E-05  2944   0.798E-04 0.102E-06
  25 F= -.11855950E+04 E0= -.11855774E+04  d E =-.206445E-02  mag=   118.0000
       N       E                     dE             d eps       ncg     rms          ort
SDA:   1    -0.118555058505E+04    0.44437E-01    0.00000E+00  2944   0.237E+00 0.000E+00
CGA:   2    -0.118556055919E+04   -0.99741E-02   -0.99396E-02  2944   0.208E+00 0.339E-03
CGA:   3    -0.118557617790E+04   -0.15619E-01   -0.15621E-01  2944   0.185E+00 0.502E-03
CGA:   4    -0.118558988131E+04   -0.13703E-01   -0.13702E-01  2944   0.365E-01-0.253E-03
CGA:   5    -0.118559397084E+04   -0.40895E-02   -0.40884E-02  2944   0.357E-01 0.327E-04
CGA:   6    -0.118559536393E+04   -0.13931E-02   -0.13916E-02  2944   0.224E-01 0.471E-04
CGA:   7    -0.118559665673E+04   -0.12928E-02   -0.12988E-02  2944   0.477E-02 0.861E-04
CGA:   8    -0.118559718213E+04   -0.52540E-03   -0.52436E-03  2944   0.364E-02 0.285E-04
CGA:   9    -0.118559739999E+04   -0.21786E-03   -0.21786E-03  2944   0.272E-02 0.632E-05
CGA:  10    -0.118559748734E+04   -0.87349E-04   -0.87786E-04  2944   0.605E-03-0.116E-05
CGA:  11    -0.118559756878E+04   -0.81441E-04   -0.81419E-04  2944   0.447E-03 0.320E-06
CGA:  12    -0.118559761428E+04   -0.45501E-04   -0.45527E-04  2944   0.316E-03-0.925E-06
CGA:  13    -0.118559762778E+04   -0.13503E-04   -0.13509E-04  2944   0.252E-03-0.113E-06
CGA:  14    -0.118559764367E+04   -0.15892E-04   -0.15887E-04  2944   0.108E-03-0.268E-06
CGA:  15    -0.118559765817E+04   -0.14498E-04   -0.14386E-04  2944   0.773E-04 0.196E-05
CGA:  16    -0.118559766443E+04   -0.62597E-05   -0.62590E-05  2944   0.415E-04 0.975E-06
  26 F= -.11855977E+04 E0= -.11855801E+04  d E =-.263850E-02  mag=   118.0000
       N       E                     dE             d eps       ncg     rms          ort
SDA:   1    -0.118558983227E+04    0.78259E-02    0.00000E+00  2944   0.217E+00 0.000E+00
CGA:   2    -0.118559405801E+04   -0.42257E-02   -0.42566E-02  2944   0.140E-01-0.156E-02
CGA:   3    -0.118559563718E+04   -0.15792E-02   -0.15807E-02  2944   0.184E-01-0.366E-04
CGA:   4    -0.118559744574E+04   -0.18086E-02   -0.18094E-02  2944   0.561E-02-0.340E-04
CGA:   5    -0.118559769244E+04   -0.24670E-03   -0.24715E-03  2944   0.507E-02 0.981E-06
CGA:   6    -0.118559803804E+04   -0.34560E-03   -0.34562E-03  2944   0.193E-02 0.613E-05
CGA:   7    -0.118559818400E+04   -0.14597E-03   -0.14598E-03  2944   0.597E-03 0.782E-05
CGA:   8    -0.118559821695E+04   -0.32950E-04   -0.32968E-04  2944   0.733E-03 0.112E-05
CGA:   9    -0.118559826298E+04   -0.46021E-04   -0.46054E-04  2944   0.159E-03 0.239E-05
CGA:  10    -0.118559827704E+04   -0.14064E-04   -0.14068E-04  2944   0.116E-03-0.282E-06
CGA:  11    -0.118559828200E+04   -0.49614E-05   -0.49555E-05  2944   0.792E-04-0.215E-06
  27 F= -.11855983E+04 E0= -.11855807E+04  d E =-.617570E-03  mag=   118.0000
       N       E                     dE             d eps       ncg     rms          ort
SDA:   1    -0.118525076019E+04    0.34752E+00    0.00000E+00  2944   0.110E+01 0.000E+00
CGA:   2    -0.118536986260E+04   -0.11910E+00   -0.11971E+00  2944   0.208E+01-0.129E-01
CGA:   3    -0.118547554553E+04   -0.10568E+00   -0.10549E+00  2944   0.131E+01-0.171E-02
CGA:   4    -0.118554141100E+04   -0.65865E-01   -0.63506E-01  2944   0.283E+00 0.236E-02
CGA:   5    -0.118558019509E+04   -0.38784E-01   -0.38828E-01  2944   0.193E+00-0.631E-03
CGA:   6    -0.118558748234E+04   -0.72872E-02   -0.72615E-02  2944   0.104E+00 0.341E-03
CGA:   7    -0.118559324066E+04   -0.57583E-02   -0.57577E-02  2944   0.407E-01 0.230E-05
CGA:   8    -0.118559743864E+04   -0.41980E-02   -0.41938E-02  2944   0.189E-01 0.106E-03
CGA:   9    -0.118559827503E+04   -0.83639E-03   -0.83733E-03  2944   0.138E-01-0.111E-04
CGA:  10    -0.118559902892E+04   -0.75388E-03   -0.75338E-03  2944   0.484E-02-0.115E-04
CGA:  11    -0.118559951294E+04   -0.48403E-03   -0.48366E-03  2944   0.344E-02 0.903E-05
CGA:  12    -0.118559970873E+04   -0.19579E-03   -0.19562E-03  2944   0.364E-02-0.454E-05
CGA:  13    -0.118559989294E+04   -0.18421E-03   -0.18437E-03  2944   0.857E-03 0.130E-06
CGA:  14    -0.118560001230E+04   -0.11936E-03   -0.11932E-03  2944   0.107E-02 0.661E-06
CGA:  15    -0.118560006244E+04   -0.50142E-04   -0.50204E-04  2944   0.888E-03 0.203E-05
CGA:  16    -0.118560011847E+04   -0.56034E-04   -0.56041E-04  2944   0.237E-03 0.172E-05
CGA:  17    -0.118560015395E+04   -0.35472E-04   -0.35388E-04  2944   0.505E-03 0.110E-05
CGA:  18    -0.118560017478E+04   -0.20831E-04   -0.20816E-04  2944   0.220E-03-0.518E-06
CGA:  19    -0.118560018781E+04   -0.13034E-04   -0.13032E-04  2944   0.932E-04-0.373E-06
CGA:  20    -0.118560019967E+04   -0.11854E-04   -0.11886E-04  2944   0.124E-03-0.592E-06
CGA:  21    -0.118560020414E+04   -0.44711E-05   -0.44668E-05  2944   0.582E-04-0.124E-06
  28 F= -.11856002E+04 E0= -.11855827E+04  d E =-.192214E-02  mag=   118.0000
       N       E                     dE             d eps       ncg     rms          ort
SDA:   1    -0.118557177050E+04    0.28429E-01    0.00000E+00  2944   0.105E+00 0.000E+00
CGA:   2    -0.118557793521E+04   -0.61647E-02   -0.61724E-02  2944   0.172E+00 0.637E-04
CGA:   3    -0.118559121693E+04   -0.13282E-01   -0.13281E-01  2944   0.726E-01 0.400E-03
CGA:   4    -0.118559614263E+04   -0.49257E-02   -0.49221E-02  2944   0.254E-01-0.173E-03
CGA:   5    -0.118559929666E+04   -0.31540E-02   -0.31558E-02  2944   0.856E-02-0.328E-04
CGA:   6    -0.118560008023E+04   -0.78357E-03   -0.78309E-03  2944   0.450E-02 0.243E-04
CGA:   7    -0.118560046915E+04   -0.38892E-03   -0.38878E-03  2944   0.285E-02 0.123E-04
CGA:   8    -0.118560058318E+04   -0.11404E-03   -0.11399E-03  2944   0.182E-02 0.333E-05
CGA:   9    -0.118560068842E+04   -0.10523E-03   -0.10542E-03  2944   0.458E-03 0.542E-05
CGA:  10    -0.118560073916E+04   -0.50741E-04   -0.50702E-04  2944   0.260E-03 0.121E-05
CGA:  11    -0.118560076865E+04   -0.29499E-04   -0.29413E-04  2944   0.270E-03 0.234E-05
CGA:  12    -0.118560077766E+04   -0.90077E-05   -0.90133E-05  2944   0.112E-03 0.227E-06
  29 F= -.11856008E+04 E0= -.11855832E+04  d E =-.573526E-03  mag=   118.0000
       N       E                     dE             d eps       ncg     rms          ort
SDA:   1    -0.118559098969E+04    0.97790E-02    0.00000E+00  2944   0.604E-01 0.000E+00
CGA:   2    -0.118559371106E+04   -0.27214E-02   -0.27359E-02  2944   0.463E-01-0.104E-03
CGA:   3    -0.118559605470E+04   -0.23436E-02   -0.23323E-02  2944   0.299E-01-0.153E-05
CGA:   4    -0.118559899764E+04   -0.29429E-02   -0.29419E-02  2944   0.116E-01 0.312E-04
CGA:   5    -0.118560012926E+04   -0.11316E-02   -0.11312E-02  2944   0.600E-02 0.137E-04
CGA:   6    -0.118560051844E+04   -0.38918E-03   -0.38904E-03  2944   0.638E-02-0.446E-05
CGA:   7    -0.118560075614E+04   -0.23770E-03   -0.23811E-03  2944   0.150E-02-0.260E-05
CGA:   8    -0.118560089097E+04   -0.13483E-03   -0.13483E-03  2944   0.671E-03 0.573E-06
CGA:   9    -0.118560095478E+04   -0.63806E-04   -0.63757E-04  2944   0.303E-03 0.234E-05
CGA:  10    -0.118560098390E+04   -0.29126E-04   -0.29121E-04  2944   0.108E-03 0.375E-06
CGA:  11    -0.118560099405E+04   -0.10148E-04   -0.10136E-04  2944   0.106E-03 0.785E-06
CGA:  12    -0.118560099855E+04   -0.44955E-05   -0.45124E-05  2944   0.832E-04 0.474E-06
  30 F= -.11856010E+04 E0= -.11855834E+04  d E =-.220884E-03  mag=   118.0000
