       N       E                     dE             d eps       ncg     rms          ort
DAV:   1     0.855846184774E+04    0.85585E+04   -0.35788E+05  1728   0.172E+03
DAV:   2     0.599827953605E+03   -0.79586E+04   -0.74279E+04  1728   0.497E+02
DAV:   3    -0.613410254812E+03   -0.12132E+04   -0.11611E+04  1728   0.190E+02
DAV:   4    -0.695048350073E+03   -0.81638E+02   -0.79219E+02  1728   0.463E+01
DAV:   5    -0.699999933030E+03   -0.49516E+01   -0.49027E+01  1728   0.904E+00
SDA:   6    -0.167514365223E+03    0.53249E+03   -0.49027E+01  1728   0.355E+04 0.000E+00
CGA:   7    -0.507499871451E+03   -0.33999E+03   -0.41085E+03  1728   0.422E+03-0.321E+02
CGA:   8    -0.543424134370E+03   -0.35924E+02   -0.48501E+02  1728   0.116E+03 0.170E+02
CGA:   9    -0.556687517963E+03   -0.13263E+02   -0.13807E+02  1728   0.793E+02-0.894E+01
CGA:  10    -0.562678221206E+03   -0.59907E+01   -0.57432E+01  1728   0.658E+02-0.561E+01
CGA:  11    -0.568694846375E+03   -0.60166E+01   -0.68668E+01  1728   0.456E+02-0.805E-01
CGA:  12    -0.572075723033E+03   -0.33809E+01   -0.36727E+01  1728   0.136E+02-0.270E+01
CGA:  13    -0.573824807946E+03   -0.17491E+01   -0.17283E+01  1728   0.603E+01-0.881E-01
CGA:  14    -0.574623179685E+03   -0.79837E+00   -0.80352E+00  1728   0.385E+01 0.226E-01
CGA:  15    -0.574933686412E+03   -0.31051E+00   -0.31659E+00  1728   0.751E+00-0.598E-01
CGA:  16    -0.575112218846E+03   -0.17853E+00   -0.17862E+00  1728   0.632E+00-0.676E-03
CGA:  17    -0.575165353547E+03   -0.53135E-01   -0.51602E-01  1728   0.237E+00 0.765E-02
CGA:  18    -0.575206891697E+03   -0.41538E-01   -0.41544E-01  1728   0.169E+00-0.893E-03
CGA:  19    -0.575229539510E+03   -0.22648E-01   -0.22626E-01  1728   0.130E+00-0.762E-03
CGA:  20    -0.575244246187E+03   -0.14707E-01   -0.14629E-01  1728   0.664E-01-0.483E-03
CGA:  21    -0.575254665765E+03   -0.10420E-01   -0.10419E-01  1728   0.583E-01-0.224E-03
CGA:  22    -0.575260920320E+03   -0.62546E-02   -0.62403E-02  1728   0.382E-01-0.934E-04
CGA:  23    -0.575266825357E+03   -0.59050E-02   -0.59047E-02  1728   0.204E-01-0.851E-04
CGA:  24    -0.575269621485E+03   -0.27961E-02   -0.27967E-02  1728   0.230E-01 0.745E-06
CGA:  25    -0.575272187420E+03   -0.25659E-02   -0.25644E-02  1728   0.810E-02-0.108E-04
CGA:  26    -0.575273609726E+03   -0.14223E-02   -0.14229E-02  1728   0.687E-02-0.242E-04
CGA:  27    -0.575274237920E+03   -0.62819E-03   -0.62816E-03  1728   0.358E-02-0.118E-05
CGA:  28    -0.575274804698E+03   -0.56678E-03   -0.56666E-03  1728   0.162E-02 0.214E-04
CGA:  29    -0.575275032851E+03   -0.22815E-03   -0.22843E-03  1728   0.151E-02 0.214E-04
CGA:  30    -0.575275186499E+03   -0.15365E-03   -0.15431E-03  1728   0.639E-03 0.120E-04
CGA:  31    -0.575275323910E+03   -0.13741E-03   -0.13811E-03  1728   0.409E-03-0.108E-04
CGA:  32    -0.575275375990E+03   -0.52080E-04   -0.51757E-04  1728   0.425E-03-0.132E-04
CGA:  33    -0.575275431551E+03   -0.55561E-04   -0.55296E-04  1728   0.224E-03-0.151E-04
CGA:  34    -0.575275470931E+03   -0.39380E-04   -0.39307E-04  1728   0.199E-03 0.237E-05
CGA:  35    -0.575275493613E+03   -0.22682E-04   -0.22985E-04  1728   0.143E-03 0.803E-05
CGA:  36    -0.575275516413E+03   -0.22800E-04   -0.22765E-04  1728   0.922E-04 0.123E-04
SDA:  37    -0.575275532177E+03   -0.15764E-04   -0.15717E-04  1728   0.100E-03 0.782E-05
CGA:  38    -0.575275539712E+03   -0.75345E-05   -0.74945E-05  1728   0.418E-04-0.492E-06
CGA:  39    -0.575275551849E+03   -0.12137E-04   -0.12359E-04  1728   0.448E-04-0.147E-05
CGA:  40    -0.575275557269E+03   -0.54205E-05   -0.54653E-05  1728   0.371E-04 0.155E-05
   1 F= -.57527556E+03 E0= -.57526623E+03  d E =-.186497E-01  mag=    70.0000
