       N       E                     dE             d eps       ncg     rms          ort
DAV:   1     0.135999024328E+05    0.13600E+05   -0.62665E+05  2976   0.166E+03
DAV:   2     0.461444747047E+03   -0.13138E+05   -0.12145E+05  2976   0.460E+02
DAV:   3    -0.127024048901E+04   -0.17317E+04   -0.16984E+04  2976   0.179E+02
DAV:   4    -0.134569762570E+04   -0.75457E+02   -0.74457E+02  2976   0.372E+01
DAV:   5    -0.134996162625E+04   -0.42640E+01   -0.42414E+01  2976   0.671E+00
SDA:   6    -0.852636568431E+03    0.49733E+03   -0.42414E+01  2976   0.211E+04 0.000E+00
CGA:   7    -0.111982971112E+04   -0.26719E+03   -0.28765E+03  2976   0.401E+03 0.719E+02
CGA:   8    -0.115098665453E+04   -0.31157E+02   -0.44781E+02  2976   0.171E+03-0.387E+02
CGA:   9    -0.115370427693E+04   -0.27176E+01   -0.15262E+02  2976   0.215E+03-0.697E+00
CGA:  10    -0.116114510538E+04   -0.74408E+01   -0.85883E+01  2976   0.181E+03-0.225E+02
CGA:  11    -0.117101366744E+04   -0.98686E+01   -0.11837E+02  2976   0.182E+03-0.116E+03
CGA:  12    -0.117427682444E+04   -0.32632E+01   -0.15164E+02  2976   0.124E+03-0.235E+02
CGA:  13    -0.117070234975E+04    0.35745E+01   -0.68692E+01  2976   0.369E+03-0.580E+00
CGA:  14    -0.116877502452E+04    0.19273E+01   -0.20333E+02  2976   0.161E+03-0.116E+03
CGA:  15    -0.117300822413E+04   -0.42332E+01   -0.82758E+01  2976   0.144E+03-0.146E+03
CGA:  16    -0.117612390654E+04   -0.31157E+01   -0.11083E+02  2976   0.474E+02 0.340E+01
CGA:  17    -0.118067656852E+04   -0.45527E+01   -0.26828E+01  2976   0.768E+02-0.472E+02
CGA:  18    -0.117970763235E+04    0.96894E+00   -0.43275E+01  2976   0.352E+02-0.149E+02
CGA:  19    -0.118315765800E+04   -0.34500E+01   -0.11088E+01  2976   0.642E+02-0.775E+02
CGA:  20    -0.118166563174E+04    0.14920E+01   -0.36329E+01  2976   0.865E+02-0.232E+02
CGA:  21    -0.118017239087E+04    0.14932E+01   -0.22694E+01  2976   0.175E+03-0.819E+02
CGA:  22    -0.117993235150E+04    0.24004E+00   -0.10095E+02  2976   0.878E+02-0.381E+02
CGA:  23    -0.117990685702E+04    0.25494E-01   -0.30938E+01  2976   0.213E+03-0.109E+03
CGA:  24    -0.118008672014E+04   -0.17986E+00   -0.10881E+02  2976   0.117E+03-0.706E+02
CGA:  25    -0.118018807234E+04   -0.10135E+00   -0.35048E+01  2976   0.136E+03-0.827E+02
CGA:  26    -0.118038204813E+04   -0.19398E+00   -0.65772E+01  2976   0.131E+03-0.753E+02
CGA:  27    -0.117963035291E+04    0.75170E+00   -0.61281E+01  2976   0.165E+03-0.749E+02
CGA:  28    -0.118181829642E+04   -0.21879E+01   -0.72547E+01  2976   0.857E+02-0.760E+02
CGA:  29    -0.118447267893E+04   -0.26544E+01   -0.19564E+01  2976   0.297E+02-0.309E+01
CGA:  30    -0.118476105176E+04   -0.28837E+00   -0.60415E+00  2976   0.370E+02-0.183E+02
CGA:  31    -0.118445482073E+04    0.30623E+00   -0.10967E+01  2976   0.738E+02-0.449E+02
CGA:  32    -0.118335791143E+04    0.10969E+01   -0.25195E+01  2976   0.960E+02-0.569E+02
CGA:  33    -0.118245439162E+04    0.90352E+00   -0.31476E+01  2976   0.124E+03-0.967E+02
CGA:  34    -0.118214261562E+04    0.31178E+00   -0.43868E+01  2976   0.913E+02-0.799E+02
CGA:  35    -0.118367331311E+04   -0.15307E+01   -0.27382E+01  2976   0.960E+02-0.129E+03
CGA:  36    -0.118363581853E+04    0.37495E-01   -0.29999E+01  2976   0.724E+02-0.710E+02
CGA:  37    -0.118436170499E+04   -0.72589E+00   -0.19539E+01  2976   0.797E+02-0.988E+02
CGA:  38    -0.118439534841E+04   -0.33643E-01   -0.22562E+01  2976   0.577E+02-0.568E+02
CGA:  39    -0.118511477176E+04   -0.71942E+00   -0.13461E+01  2976   0.335E+02-0.531E+02
CGA:  40    -0.118536370036E+04   -0.24893E+00   -0.74285E+00  2976   0.143E+02-0.202E+02
CGA:  41    -0.118557202685E+04   -0.20833E+00   -0.21894E+00  2976   0.511E+00-0.177E+01
CGA:  42    -0.118558946197E+04   -0.17435E-01   -0.17788E-01  2976   0.570E+00-0.263E-02
CGA:  43    -0.118566560229E+04   -0.76140E-01   -0.68603E-01  2976   0.964E+00 0.124E+00
CGA:  44    -0.118571116557E+04   -0.45563E-01   -0.50146E-01  2976   0.762E+00-0.177E-01
CGA:  45    -0.118576043967E+04   -0.49274E-01   -0.49485E-01  2976   0.138E+00 0.115E+00
CGA:  46    -0.118577164517E+04   -0.11206E-01   -0.11169E-01  2976   0.103E+00 0.580E-02
CGA:  47    -0.118578080625E+04   -0.91611E-02   -0.90718E-02  2976   0.136E+00 0.362E-02
CGA:  48    -0.118579057232E+04   -0.97661E-02   -0.97506E-02  2976   0.794E-01 0.614E-02
CGA:  49    -0.118579743055E+04   -0.68582E-02   -0.67787E-02  2976   0.365E-01 0.384E-02
CGA:  50    -0.118580030220E+04   -0.28716E-02   -0.28709E-02  2976   0.226E-01 0.169E-04
CGA:  51    -0.118580267187E+04   -0.23697E-02   -0.23695E-02  2976   0.240E-01-0.276E-04
CGA:  52    -0.118580455239E+04   -0.18805E-02   -0.18726E-02  2976   0.159E-01 0.558E-03
CGA:  53    -0.118580596864E+04   -0.14163E-02   -0.14205E-02  2976   0.124E-01-0.247E-03
CGA:  54    -0.118580716436E+04   -0.11957E-02   -0.11896E-02  2976   0.724E-02 0.134E-03
CGA:  55    -0.118580796553E+04   -0.80117E-03   -0.80291E-03  2976   0.747E-02-0.602E-04
CGA:  56    -0.118580853590E+04   -0.57037E-03   -0.57043E-03  2976   0.457E-02-0.503E-04
CGA:  57    -0.118580898942E+04   -0.45352E-03   -0.45808E-03  2976   0.380E-02-0.147E-03
CGA:  58    -0.118580939487E+04   -0.40545E-03   -0.40118E-03  2976   0.247E-02 0.103E-03
CGA:  59    -0.118580964152E+04   -0.24665E-03   -0.25152E-03  2976   0.328E-02-0.182E-03
CGA:  60    -0.118580962463E+04    0.16892E-04   -0.45732E-03  2976   0.271E-01-0.116E-01
CGA:  61    -0.118581048585E+04   -0.86122E-03   -0.91340E-03  2976   0.198E-02-0.100E-02
CGA:  62    -0.118581059842E+04   -0.11257E-03   -0.11254E-03  2976   0.148E-02 0.286E-05
CGA:  63    -0.118581079677E+04   -0.19835E-03   -0.19890E-03  2976   0.155E-02-0.931E-05
CGA:  64    -0.118581104443E+04   -0.24766E-03   -0.24152E-03  2976   0.172E-02 0.722E-04
CGA:  65    -0.118581119736E+04   -0.15293E-03   -0.15286E-03  2976   0.102E-02-0.441E-04
CGA:  66    -0.118581132214E+04   -0.12479E-03   -0.12241E-03  2976   0.339E-03 0.553E-04
CGA:  67    -0.118581136101E+04   -0.38865E-04   -0.38771E-04  2976   0.375E-03 0.619E-05
CGA:  68    -0.118581138909E+04   -0.28085E-04   -0.28270E-04  2976   0.253E-03 0.976E-05
CGA:  69    -0.118581140642E+04   -0.17331E-04   -0.17420E-04  2976   0.176E-03 0.476E-05
CGA:  70    -0.118581142664E+04   -0.20210E-04   -0.20110E-04  2976   0.184E-03 0.410E-05
CGA:  71    -0.118581145430E+04   -0.27669E-04   -0.27371E-04  2976   0.152E-03 0.509E-05
CGA:  72    -0.118581148364E+04   -0.29338E-04   -0.29285E-04  2976   0.269E-03 0.538E-06
CGA:  73    -0.118581152251E+04   -0.38866E-04   -0.38915E-04  2976   0.381E-03-0.123E-05
CGA:  74    -0.118581156974E+04   -0.47229E-04   -0.47424E-04  2976   0.247E-03-0.696E-05
CGA:  75    -0.118581161636E+04   -0.46626E-04   -0.47349E-04  2976   0.347E-03-0.759E-05
CGA:  76    -0.118581164427E+04   -0.27910E-04   -0.27702E-04  2976   0.243E-03-0.758E-05
CGA:  77    -0.118581167767E+04   -0.33396E-04   -0.33600E-04  2976   0.323E-03-0.582E-05
CGA:  78    -0.118581169595E+04   -0.18285E-04   -0.18122E-04  2976   0.228E-03-0.273E-05
CGA:  79    -0.118581172582E+04   -0.29861E-04   -0.29913E-04  2976   0.174E-03-0.174E-05
CGA:  80    -0.118581174984E+04   -0.24026E-04   -0.23924E-04  2976   0.190E-03 0.291E-05
CGA:  81    -0.118581176949E+04   -0.19645E-04   -0.19659E-04  2976   0.201E-03 0.367E-05
CGA:  82    -0.118581178893E+04   -0.19443E-04   -0.19504E-04  2976   0.217E-03 0.520E-05
CGA:  83    -0.118581180237E+04   -0.13443E-04   -0.13539E-04  2976   0.117E-03 0.317E-05
CGA:  84    -0.118581182390E+04   -0.21527E-04   -0.21426E-04  2976   0.144E-03 0.128E-05
CGA:  85    -0.118581183902E+04   -0.15117E-04   -0.15112E-04  2976   0.896E-04-0.184E-05
CGA:  86    -0.118581184688E+04   -0.78596E-05   -0.77701E-05  2976   0.749E-04-0.439E-05
   1 F= -.11858118E+04 E0= -.11857971E+04  d E =-.118581E+04  mag=   118.0000
       N       E                     dE             d eps       ncg     rms          ort
SDA:   1    -0.118577421964E+04    0.37619E-01    0.00000E+00  2976   0.444E+00 0.000E+00
CGA:   2    -0.118578630086E+04   -0.12081E-01   -0.14491E-01  2976   0.108E+00-0.559E-01
CGA:   3    -0.118580036342E+04   -0.14063E-01   -0.14175E-01  2976   0.124E+00-0.201E-02
CGA:   4    -0.118580659448E+04   -0.62311E-02   -0.65889E-02  2976   0.352E-01-0.315E-02
CGA:   5    -0.118580906676E+04   -0.24723E-02   -0.24478E-02  2976   0.220E-01 0.425E-06
CGA:   6    -0.118581066999E+04   -0.16032E-02   -0.16019E-02  2976   0.108E-01 0.344E-04
CGA:   7    -0.118581149183E+04   -0.82185E-03   -0.82246E-03  2976   0.544E-02 0.169E-04
CGA:   8    -0.118581180725E+04   -0.31542E-03   -0.31706E-03  2976   0.213E-02-0.162E-04
CGA:   9    -0.118581198400E+04   -0.17675E-03   -0.17627E-03  2976   0.145E-02-0.232E-04
CGA:  10    -0.118581207823E+04   -0.94226E-04   -0.93986E-04  2976   0.537E-03-0.132E-04
CGA:  11    -0.118581211677E+04   -0.38539E-04   -0.38369E-04  2976   0.374E-03-0.582E-05
CGA:  12    -0.118581214984E+04   -0.33078E-04   -0.33067E-04  2976   0.292E-03-0.277E-05
CGA:  13    -0.118581217119E+04   -0.21347E-04   -0.21334E-04  2976   0.133E-03-0.606E-06
CGA:  14    -0.118581218076E+04   -0.95662E-05   -0.95731E-05  2976   0.940E-04 0.203E-06
   2 F= -.11858122E+04 E0= -.11857975E+04  d E =-.333881E-03  mag=   118.0000
       N       E                     dE             d eps       ncg     rms          ort
SDA:   1    -0.118580738080E+04    0.47904E-02    0.00000E+00  2976   0.118E+00 0.000E+00
CGA:   2    -0.118581050449E+04   -0.31237E-02   -0.27628E-02  2976   0.563E-02 0.129E-01
CGA:   3    -0.118581089465E+04   -0.39017E-03   -0.38717E-03  2976   0.837E-02-0.557E-06
CGA:   4    -0.118581155086E+04   -0.65621E-03   -0.65633E-03  2976   0.820E-02 0.202E-04
CGA:   5    -0.118581189807E+04   -0.34721E-03   -0.34992E-03  2976   0.325E-02-0.190E-04
CGA:   6    -0.118581201888E+04   -0.12081E-03   -0.12059E-03  2976   0.147E-02-0.438E-06
CGA:   7    -0.118581212013E+04   -0.10125E-03   -0.10110E-03  2976   0.138E-02-0.104E-04
CGA:   8    -0.118581217990E+04   -0.59771E-04   -0.59699E-04  2976   0.768E-03-0.809E-05
CGA:   9    -0.118581222243E+04   -0.42536E-04   -0.42500E-04  2976   0.326E-03-0.265E-05
CGA:  10    -0.118581223361E+04   -0.11174E-04   -0.11193E-04  2976   0.133E-03 0.145E-05
CGA:  11    -0.118581224356E+04   -0.99480E-05   -0.99541E-05  2976   0.138E-03 0.433E-05
   3 F= -.11858122E+04 E0= -.11857975E+04  d E =-.396680E-03  mag=   118.0000
       N       E                     dE             d eps       ncg     rms          ort
SDA:   1    -0.118580957095E+04    0.26627E-02    0.00000E+00  2976   0.615E-01 0.000E+00
CGA:   2    -0.118581130341E+04   -0.17325E-02   -0.17423E-02  2976   0.429E-02-0.249E-03
CGA:   3    -0.118581157406E+04   -0.27066E-03   -0.27029E-03  2976   0.333E-02-0.863E-05
CGA:   4    -0.118581197588E+04   -0.40182E-03   -0.40012E-03  2976   0.164E-02 0.336E-04
CGA:   5    -0.118581212567E+04   -0.14978E-03   -0.14993E-03  2976   0.671E-03-0.757E-05
CGA:   6    -0.118581218263E+04   -0.56963E-04   -0.57014E-04  2976   0.375E-03-0.577E-05
CGA:   7    -0.118581222021E+04   -0.37581E-04   -0.37700E-04  2976   0.201E-03-0.464E-05
CGA:   8    -0.118581223130E+04   -0.11087E-04   -0.11101E-04  2976   0.103E-03 0.985E-06
CGA:   9    -0.118581223691E+04   -0.56088E-05   -0.56676E-05  2976   0.321E-04 0.284E-05
   4 F= -.11858122E+04 E0= -.11857975E+04  d E =-.390030E-03  mag=   118.0000
       N       E                     dE             d eps       ncg     rms          ort
SDA:   1    -0.118581201580E+04    0.21550E-03    0.00000E+00  2976   0.381E-02 0.000E+00
CGA:   2    -0.118581214989E+04   -0.13409E-03   -0.13477E-03  2976   0.506E-03-0.160E-04
CGA:   3    -0.118581218403E+04   -0.34141E-04   -0.34110E-04  2976   0.410E-03-0.393E-05
CGA:   4    -0.118581221605E+04   -0.32020E-04   -0.32035E-04  2976   0.296E-03-0.355E-05
CGA:   5    -0.118581224406E+04   -0.28013E-04   -0.28068E-04  2976   0.661E-04-0.252E-05
CGA:   6    -0.118581225090E+04   -0.68386E-05   -0.67907E-05  2976   0.232E-04 0.172E-05
   5 F= -.11858123E+04 E0= -.11857975E+04  d E =-.404024E-03  mag=   118.0000
       N       E                     dE             d eps       ncg     rms          ort
SDA:   1    -0.118579586880E+04    0.16375E-01    0.00000E+00  2976   0.452E-01 0.000E+00
CGA:   2    -0.118580604183E+04   -0.10173E-01   -0.10175E-01  2976   0.508E-01-0.264E-04
CGA:   3    -0.118580935491E+04   -0.33131E-02   -0.33321E-02  2976   0.211E-01 0.168E-03
CGA:   4    -0.118581090114E+04   -0.15462E-02   -0.15432E-02  2976   0.162E-01-0.922E-04
CGA:   5    -0.118581183670E+04   -0.93556E-03   -0.93618E-03  2976   0.562E-02-0.165E-04
CGA:   6    -0.118581226404E+04   -0.42734E-03   -0.42731E-03  2976   0.217E-02-0.408E-05
CGA:   7    -0.118581246950E+04   -0.20546E-03   -0.20538E-03  2976   0.100E-02 0.602E-05
CGA:   8    -0.118581253873E+04   -0.69231E-04   -0.69290E-04  2976   0.404E-03 0.473E-05
CGA:   9    -0.118581258183E+04   -0.43107E-04   -0.43030E-04  2976   0.227E-03 0.344E-05
CGA:  10    -0.118581259647E+04   -0.14638E-04   -0.14644E-04  2976   0.196E-03 0.603E-06
CGA:  11    -0.118581261113E+04   -0.14656E-04   -0.14661E-04  2976   0.720E-04 0.382E-06
CGA:  12    -0.118581261912E+04   -0.79938E-05   -0.80106E-05  2976   0.406E-04-0.613E-06
   6 F= -.11858126E+04 E0= -.11857979E+04  d E =-.368222E-03  mag=   118.0000
       N       E                     dE             d eps       ncg     rms          ort
SDA:   1    -0.118580299429E+04    0.96168E-02    0.00000E+00  2976   0.580E-01 0.000E+00
CGA:   2    -0.118580552762E+04   -0.25333E-02   -0.26536E-02  2976   0.315E-01-0.107E-02
CGA:   3    -0.118580899606E+04   -0.34684E-02   -0.34814E-02  2976   0.395E-01-0.331E-03
CGA:   4    -0.118581127617E+04   -0.22801E-02   -0.22962E-02  2976   0.712E-02 0.390E-04
CGA:   5    -0.118581203589E+04   -0.75972E-03   -0.75898E-03  2976   0.475E-02 0.184E-04
CGA:   6    -0.118581240355E+04   -0.36766E-03   -0.36726E-03  2976   0.210E-02-0.276E-04
CGA:   7    -0.118581254065E+04   -0.13710E-03   -0.13711E-03  2976   0.944E-03-0.359E-06
CGA:   8    -0.118581259790E+04   -0.57249E-04   -0.57416E-04  2976   0.600E-03 0.384E-05
CGA:   9    -0.118581264190E+04   -0.43999E-04   -0.44026E-04  2976   0.160E-03 0.383E-05
CGA:  10    -0.118581266202E+04   -0.20126E-04   -0.20006E-04  2976   0.950E-04 0.285E-05
CGA:  11    -0.118581267013E+04   -0.81095E-05   -0.81098E-05  2976   0.912E-04 0.404E-06
   7 F= -.11858127E+04 E0= -.11857980E+04  d E =-.419231E-03  mag=   118.0000
       N       E                     dE             d eps       ncg     rms          ort
SDA:   1    -0.118581014220E+04    0.25198E-02    0.00000E+00  2976   0.547E-01 0.000E+00
CGA:   2    -0.118581162515E+04   -0.14829E-02   -0.15455E-02  2976   0.519E-02-0.164E-02
CGA:   3    -0.118581201065E+04   -0.38550E-03   -0.38547E-03  2976   0.374E-02-0.401E-05
CGA:   4    -0.118581247536E+04   -0.46471E-03   -0.46375E-03  2976   0.287E-02 0.184E-04
CGA:   5    -0.118581264387E+04   -0.16851E-03   -0.16795E-03  2976   0.821E-03-0.451E-05
CGA:   6    -0.118581269658E+04   -0.52712E-04   -0.52741E-04  2976   0.645E-03 0.526E-07
CGA:   7    -0.118581275061E+04   -0.54031E-04   -0.54028E-04  2976   0.222E-03 0.583E-06
CGA:   8    -0.118581276587E+04   -0.15254E-04   -0.15257E-04  2976   0.104E-03 0.394E-06
CGA:   9    -0.118581277433E+04   -0.84662E-05   -0.84659E-05  2976   0.624E-04 0.774E-06
   8 F= -.11858128E+04 E0= -.11857981E+04  d E =-.104203E-03  mag=   118.0000
       N       E                     dE             d eps       ncg     rms          ort
SDA:   1    -0.118580079596E+04    0.11970E-01    0.00000E+00  2976   0.896E-01 0.000E+00
CGA:   2    -0.118580381385E+04   -0.30179E-02   -0.32191E-02  2976   0.355E-01-0.319E-02
CGA:   3    -0.118580962926E+04   -0.58154E-02   -0.58423E-02  2976   0.331E-01-0.298E-03
CGA:   4    -0.118581128307E+04   -0.16538E-02   -0.16750E-02  2976   0.885E-02-0.741E-04
CGA:   5    -0.118581224324E+04   -0.96016E-03   -0.95972E-03  2976   0.883E-02 0.119E-04
CGA:   6    -0.118581267681E+04   -0.43357E-03   -0.43560E-03  2976   0.224E-02-0.919E-05
CGA:   7    -0.118581284015E+04   -0.16333E-03   -0.16323E-03  2976   0.118E-02-0.553E-05
CGA:   8    -0.118581294516E+04   -0.10501E-03   -0.10493E-03  2976   0.577E-03 0.670E-05
CGA:   9    -0.118581297826E+04   -0.33100E-04   -0.33092E-04  2976   0.238E-03 0.839E-06
CGA:  10    -0.118581299526E+04   -0.17002E-04   -0.17004E-04  2976   0.185E-03 0.284E-06
CGA:  11    -0.118581301245E+04   -0.17194E-04   -0.17192E-04  2976   0.737E-04 0.127E-06
CGA:  12    -0.118581302025E+04   -0.77926E-05   -0.77896E-05  2976   0.776E-04 0.646E-07
   9 F= -.11858130E+04 E0= -.11857983E+04  d E =-.350115E-03  mag=   118.0000
       N       E                     dE             d eps       ncg     rms          ort
SDA:   1    -0.118577011953E+04    0.42893E-01    0.00000E+00  2976   0.123E+00 0.000E+00
CGA:   2    -0.118578797115E+04   -0.17852E-01   -0.18096E-01  2976   0.314E+00-0.350E-02
CGA:   3    -0.118580274687E+04   -0.14776E-01   -0.15143E-01  2976   0.549E-01-0.176E-02
CGA:   4    -0.118580838164E+04   -0.56348E-02   -0.56243E-02  2976   0.403E-01 0.336E-03
CGA:   5    -0.118581112324E+04   -0.27416E-02   -0.27306E-02  2976   0.162E-01-0.216E-03
CGA:   6    -0.118581215017E+04   -0.10269E-02   -0.10312E-02  2976   0.965E-02 0.609E-04
CGA:   7    -0.118581270079E+04   -0.55062E-03   -0.55246E-03  2976   0.396E-02 0.126E-04
CGA:   8    -0.118581302925E+04   -0.32846E-03   -0.32851E-03  2976   0.152E-02-0.533E-05
CGA:   9    -0.118581315633E+04   -0.12708E-03   -0.12706E-03  2976   0.702E-03 0.390E-05
CGA:  10    -0.118581322426E+04   -0.67925E-04   -0.67937E-04  2976   0.501E-03-0.296E-06
CGA:  11    -0.118581327135E+04   -0.47092E-04   -0.47092E-04  2976   0.353E-03-0.652E-07
CGA:  12    -0.118581328642E+04   -0.15073E-04   -0.15037E-04  2976   0.124E-03 0.713E-07
CGA:  13    -0.118581331180E+04   -0.25379E-04   -0.25412E-04  2976   0.685E-04-0.251E-06
CGA:  14    -0.118581332093E+04   -0.91254E-05   -0.91274E-05  2976   0.737E-04-0.512E-07
  10 F= -.11858133E+04 E0= -.11857986E+04  d E =-.650797E-03  mag=   118.0000
       N       E                     dE             d eps       ncg     rms          ort
SDA:   1    -0.118581117193E+04    0.21399E-02    0.00000E+00  2976   0.333E-01 0.000E+00
CGA:   2    -0.118581237273E+04   -0.12008E-02   -0.11417E-02  2976   0.431E-02 0.114E-02
CGA:   3    -0.118581277255E+04   -0.39983E-03   -0.40011E-03  2976   0.601E-02-0.544E-04
CGA:   4    -0.118581321894E+04   -0.44638E-03   -0.44599E-03  2976   0.281E-02-0.437E-04
CGA:   5    -0.118581344792E+04   -0.22898E-03   -0.22897E-03  2976   0.936E-03-0.182E-05
CGA:   6    -0.118581351710E+04   -0.69187E-04   -0.69353E-04  2976   0.621E-03 0.164E-04
CGA:   7    -0.118581355730E+04   -0.40199E-04   -0.40489E-04  2976   0.346E-03 0.151E-04
CGA:   8    -0.118581357849E+04   -0.21182E-04   -0.21367E-04  2976   0.134E-03 0.700E-05
CGA:   9    -0.118581358760E+04   -0.91177E-05   -0.90994E-05  2976   0.597E-04-0.109E-05
  11 F= -.11858136E+04 E0= -.11857989E+04  d E =-.266674E-03  mag=   118.0000
       N       E                     dE             d eps       ncg     rms          ort
SDA:   1    -0.118580071824E+04    0.12860E-01    0.00000E+00  2976   0.598E-01 0.000E+00
CGA:   2    -0.118580473921E+04   -0.40210E-02   -0.39922E-02  2976   0.400E-01-0.473E-03
CGA:   3    -0.118581137193E+04   -0.66327E-02   -0.66580E-02  2976   0.131E-01-0.299E-03
CGA:   4    -0.118581256071E+04   -0.11888E-02   -0.11886E-02  2976   0.114E-01 0.602E-04
CGA:   5    -0.118581345355E+04   -0.89284E-03   -0.89406E-03  2976   0.263E-02 0.119E-03
CGA:   6    -0.118581371467E+04   -0.26111E-03   -0.26100E-03  2976   0.204E-02 0.894E-05
CGA:   7    -0.118581381896E+04   -0.10430E-03   -0.10423E-03  2976   0.995E-03-0.123E-04
CGA:   8    -0.118581389632E+04   -0.77359E-04   -0.77200E-04  2976   0.225E-03-0.201E-04
CGA:   9    -0.118581392889E+04   -0.32569E-04   -0.33193E-04  2976   0.266E-03-0.968E-05
CGA:  10    -0.118581394447E+04   -0.15585E-04   -0.15465E-04  2976   0.955E-04-0.366E-05
CGA:  11    -0.118581395229E+04   -0.78163E-05   -0.78204E-05  2976   0.916E-04 0.923E-06
  12 F= -.11858140E+04 E0= -.11857993E+04  d E =-.631363E-03  mag=   118.0000
       N       E                     dE             d eps       ncg     rms          ort
SDA:   1    -0.118581140572E+04    0.25388E-02    0.00000E+00  2976   0.284E-01 0.000E+00
CGA:   2    -0.118581241354E+04   -0.10078E-02   -0.98981E-03  2976   0.713E-02 0.314E-03
CGA:   3    -0.118581306673E+04   -0.65319E-03   -0.65306E-03  2976   0.718E-02-0.341E-05
CGA:   4    -0.118581372236E+04   -0.65563E-03   -0.65625E-03  2976   0.382E-02-0.619E-04
CGA:   5    -0.118581396097E+04   -0.23861E-03   -0.23965E-03  2976   0.104E-02 0.106E-04
CGA:   6    -0.118581410167E+04   -0.14070E-03   -0.13957E-03  2976   0.439E-03 0.222E-04
CGA:   7    -0.118581413851E+04   -0.36844E-04   -0.36860E-04  2976   0.373E-03 0.451E-05
CGA:   8    -0.118581415622E+04   -0.17712E-04   -0.17760E-04  2976   0.107E-03 0.108E-06
CGA:   9    -0.118581416952E+04   -0.13297E-04   -0.13484E-04  2976   0.523E-04-0.445E-05
CGA:  10    -0.118581417361E+04   -0.40873E-05   -0.40791E-05  2976   0.357E-04-0.187E-05
  13 F= -.11858142E+04 E0= -.11857995E+04  d E =-.221315E-03  mag=   118.0000
       N       E                     dE             d eps       ncg     rms          ort
SDA:   1    -0.118579631192E+04    0.17858E-01    0.00000E+00  2976   0.576E-01 0.000E+00
CGA:   2    -0.118580285636E+04   -0.65444E-02   -0.65576E-02  2976   0.114E+00-0.390E-03
CGA:   3    -0.118580931366E+04   -0.64573E-02   -0.65094E-02  2976   0.300E-01-0.143E-03
CGA:   4    -0.118581226664E+04   -0.29530E-02   -0.29630E-02  2976   0.133E-01-0.472E-03
CGA:   5    -0.118581374600E+04   -0.14794E-02   -0.14761E-02  2976   0.592E-02 0.111E-03
CGA:   6    -0.118581416907E+04   -0.42308E-03   -0.42266E-03  2976   0.212E-02 0.574E-05
CGA:   7    -0.118581444419E+04   -0.27511E-03   -0.27557E-03  2976   0.670E-03-0.104E-04
CGA:   8    -0.118581450463E+04   -0.60443E-04   -0.60455E-04  2976   0.300E-03-0.601E-05
CGA:   9    -0.118581454556E+04   -0.40931E-04   -0.41168E-04  2976   0.307E-03-0.479E-05
CGA:  10    -0.118581455878E+04   -0.13223E-04   -0.13125E-04  2976   0.105E-03-0.771E-06
CGA:  11    -0.118581456933E+04   -0.10549E-04   -0.10544E-04  2976   0.881E-04 0.408E-06
CGA:  12    -0.118581457736E+04   -0.80271E-05   -0.80257E-05  2976   0.454E-04 0.115E-05
  14 F= -.11858146E+04 E0= -.11857999E+04  d E =-.625070E-03  mag=   118.0000
       N       E                     dE             d eps       ncg     rms          ort
SDA:   1    -0.118574150130E+04    0.73068E-01    0.00000E+00  2976   0.223E+00 0.000E+00
CGA:   2    -0.118577093590E+04   -0.29435E-01   -0.29922E-01  2976   0.384E+00-0.945E-02
CGA:   3    -0.118579711676E+04   -0.26181E-01   -0.26240E-01  2976   0.789E-01 0.335E-03
CGA:   4    -0.118580729270E+04   -0.10176E-01   -0.10154E-01  2976   0.729E-01 0.508E-03
CGA:   5    -0.118581065938E+04   -0.33667E-02   -0.32350E-02  2976   0.226E-01 0.180E-02
CGA:   6    -0.118581259174E+04   -0.19324E-02   -0.19293E-02  2976   0.118E-01-0.131E-03
CGA:   7    -0.118581348967E+04   -0.89794E-03   -0.89848E-03  2976   0.665E-02 0.919E-05
CGA:   8    -0.118581394782E+04   -0.45815E-03   -0.45711E-03  2976   0.131E-02-0.224E-04
CGA:   9    -0.118581416421E+04   -0.21639E-03   -0.21776E-03  2976   0.122E-02-0.176E-04
CGA:  10    -0.118581423591E+04   -0.71697E-04   -0.71814E-04  2976   0.654E-03-0.416E-05
CGA:  11    -0.118581427821E+04   -0.42306E-04   -0.42254E-04  2976   0.382E-03-0.834E-06
CGA:  12    -0.118581431310E+04   -0.34883E-04   -0.34881E-04  2976   0.274E-03 0.158E-05
CGA:  13    -0.118581433854E+04   -0.25446E-04   -0.25442E-04  2976   0.136E-03 0.220E-05
CGA:  14    -0.118581435148E+04   -0.12937E-04   -0.12933E-04  2976   0.101E-03 0.109E-05
CGA:  15    -0.118581436188E+04   -0.10405E-04   -0.10402E-04  2976   0.100E-03 0.221E-06
CGA:  16    -0.118581436949E+04   -0.76051E-05   -0.75928E-05  2976   0.613E-04-0.807E-06
  15 F= -.11858144E+04 E0= -.11857997E+04  d E =-.417199E-03  mag=   118.0000
       N       E                     dE             d eps       ncg     rms          ort
SDA:   1    -0.118578167534E+04    0.32687E-01    0.00000E+00  2976   0.115E+00 0.000E+00
CGA:   2    -0.118579085417E+04   -0.91788E-02   -0.91289E-02  2976   0.184E+00-0.213E-02
CGA:   3    -0.118580538542E+04   -0.14531E-01   -0.14543E-01  2976   0.550E-01 0.818E-03
CGA:   4    -0.118580991640E+04   -0.45310E-02   -0.45303E-02  2976   0.311E-01-0.648E-04
CGA:   5    -0.118581273709E+04   -0.28207E-02   -0.28218E-02  2976   0.173E-01-0.219E-03
CGA:   6    -0.118581360173E+04   -0.86464E-03   -0.86298E-03  2976   0.779E-02-0.259E-04
CGA:   7    -0.118581411724E+04   -0.51551E-03   -0.51388E-03  2976   0.357E-02-0.226E-04
CGA:   8    -0.118581447216E+04   -0.35492E-03   -0.35468E-03  2976   0.867E-03 0.152E-04
CGA:   9    -0.118581454677E+04   -0.74609E-04   -0.74609E-04  2976   0.635E-03 0.466E-05
CGA:  10    -0.118581459985E+04   -0.53079E-04   -0.53092E-04  2976   0.422E-03 0.604E-05
CGA:  11    -0.118581462773E+04   -0.27876E-04   -0.27948E-04  2976   0.242E-03 0.295E-05
CGA:  12    -0.118581464163E+04   -0.13906E-04   -0.13905E-04  2976   0.104E-03 0.335E-06
CGA:  13    -0.118581465650E+04   -0.14865E-04   -0.14927E-04  2976   0.654E-04-0.103E-05
CGA:  14    -0.118581466321E+04   -0.67164E-05   -0.67369E-05  2976   0.404E-04-0.111E-05
  16 F= -.11858147E+04 E0= -.11858000E+04  d E =-.710922E-03  mag=   118.0000
       N       E                     dE             d eps       ncg     rms          ort
SDA:   1    -0.118581078982E+04    0.38667E-02    0.00000E+00  2976   0.242E-01 0.000E+00
CGA:   2    -0.118581211426E+04   -0.13244E-02   -0.13456E-02  2976   0.111E-01-0.186E-06
CGA:   3    -0.118581376244E+04   -0.16482E-02   -0.16444E-02  2976   0.900E-02 0.636E-04
CGA:   4    -0.118581434186E+04   -0.57942E-03   -0.57755E-03  2976   0.399E-02-0.344E-05
CGA:   5    -0.118581458471E+04   -0.24285E-03   -0.24280E-03  2976   0.252E-02-0.205E-04
CGA:   6    -0.118581477712E+04   -0.19241E-03   -0.19200E-03  2976   0.112E-02-0.357E-04
CGA:   7    -0.118581485132E+04   -0.74197E-04   -0.74141E-04  2976   0.321E-03-0.654E-05
CGA:   8    -0.118581488538E+04   -0.34069E-04   -0.33905E-04  2976   0.158E-03 0.776E-05
CGA:   9    -0.118581489543E+04   -0.10044E-04   -0.10175E-04  2976   0.112E-03 0.547E-05
CGA:  10    -0.118581490222E+04   -0.67924E-05   -0.69081E-05  2976   0.330E-04 0.448E-05
  17 F= -.11858149E+04 E0= -.11858002E+04  d E =-.239008E-03  mag=   118.0000
