       N       E                     dE             d eps       ncg     rms          ort
DAV:   1     0.136677248103E+05    0.13668E+05   -0.62463E+05  2944   0.167E+03
DAV:   2     0.496697914060E+03   -0.13171E+05   -0.12174E+05  2944   0.464E+02
DAV:   3    -0.126622736534E+04   -0.17629E+04   -0.17289E+04  2944   0.182E+02
DAV:   4    -0.134488971128E+04   -0.78662E+02   -0.77597E+02  2944   0.383E+01
DAV:   5    -0.134938294354E+04   -0.44932E+01   -0.44693E+01  2944   0.694E+00
SDA:   6    -0.852170358052E+03    0.49721E+03   -0.44693E+01  2944   0.211E+04 0.000E+00
CGA:   7    -0.111944803918E+04   -0.26728E+03   -0.28712E+03  2944   0.456E+03 0.686E+02
CGA:   8    -0.114295525197E+04   -0.23507E+02   -0.49326E+02  2944   0.234E+03-0.224E+02
CGA:   9    -0.115338628799E+04   -0.10431E+02   -0.16108E+02  2944   0.493E+03-0.252E+03
CGA:  10    -0.115876891061E+04   -0.53826E+01   -0.43878E+02  2944   0.259E+03-0.150E+02
CGA:  11    -0.116615987515E+04   -0.73910E+01   -0.22863E+02  2944   0.103E+03-0.300E+02
CGA:  12    -0.117139915928E+04   -0.52393E+01   -0.66366E+01  2944   0.180E+03-0.632E+02
CGA:  13    -0.117602515661E+04   -0.46260E+01   -0.14687E+02  2944   0.314E+02-0.133E+02
CGA:  14    -0.117806731415E+04   -0.20422E+01   -0.11484E+01  2944   0.245E+02 0.190E+02
CGA:  15    -0.117907955794E+04   -0.10122E+01   -0.92686E+00  2944   0.160E+02 0.258E+01
CGA:  16    -0.117963058112E+04   -0.55102E+00   -0.40688E+00  2944   0.218E+02 0.336E+01
CGA:  17    -0.117944198156E+04    0.18860E+00   -0.75071E+00  2944   0.876E+02-0.502E+02
CGA:  18    -0.117791366650E+04    0.15283E+01   -0.53085E+01  2944   0.115E+03-0.298E+02
CGA:  19    -0.117752413103E+04    0.38954E+00   -0.43424E+01  2944   0.241E+03-0.116E+03
CGA:  20    -0.117631241510E+04    0.12117E+01   -0.14778E+02  2944   0.927E+02-0.392E+02
CGA:  21    -0.117576936688E+04    0.54305E+00   -0.36065E+01  2944   0.240E+03-0.172E+03
CGA:  22    -0.117568295346E+04    0.86413E-01   -0.13886E+02  2944   0.731E+02-0.364E+02
CGA:  23    -0.117890372407E+04   -0.32208E+01   -0.27393E+01  2944   0.169E+03-0.185E+03
CGA:  24    -0.117816210081E+04    0.74162E+00   -0.86603E+01  2944   0.105E+03-0.388E+02
CGA:  25    -0.117775638302E+04    0.40572E+00   -0.33506E+01  2944   0.300E+03-0.192E+03
CGA:  26    -0.117714121773E+04    0.61517E+00   -0.15754E+02  2944   0.825E+02-0.379E+02
CGA:  27    -0.117820486192E+04   -0.10636E+01   -0.28040E+01  2944   0.185E+03-0.177E+03
CGA:  28    -0.117782131188E+04    0.38355E+00   -0.87256E+01  2944   0.697E+02-0.395E+02
CGA:  29    -0.118219349931E+04   -0.43722E+01   -0.17786E+01  2944   0.929E+02-0.118E+03
CGA:  30    -0.118220447427E+04   -0.10975E-01   -0.42127E+01  2944   0.782E+02-0.187E+02
CGA:  31    -0.118191060169E+04    0.29387E+00   -0.19510E+01  2944   0.937E+02-0.556E+02
CGA:  32    -0.118144781276E+04    0.46279E+00   -0.39645E+01  2944   0.108E+03-0.262E+02
CGA:  33    -0.118112999868E+04    0.31781E+00   -0.22817E+01  2944   0.128E+03-0.101E+03
CGA:  34    -0.118218662693E+04   -0.10566E+01   -0.56886E+01  2944   0.942E+02-0.105E+02
CGA:  35    -0.118091817674E+04    0.12685E+01   -0.24442E+01  2944   0.145E+03-0.983E+02
CGA:  36    -0.118102722628E+04   -0.10905E+00   -0.55196E+01  2944   0.985E+02-0.343E+02
CGA:  37    -0.118275319937E+04   -0.17260E+01   -0.18754E+01  2944   0.732E+02-0.892E+02
CGA:  38    -0.118378826723E+04   -0.10351E+01   -0.25081E+01  2944   0.229E+02-0.129E+02
CGA:  39    -0.118405782440E+04   -0.26956E+00   -0.31193E+00  2944   0.183E+02-0.407E+01
CGA:  40    -0.118427368215E+04   -0.21586E+00   -0.14788E+00  2944   0.125E+02 0.523E+01
CGA:  41    -0.118435814942E+04   -0.84467E-01   -0.21414E+00  2944   0.912E+01-0.104E+02
CGA:  42    -0.118448158677E+04   -0.12344E+00   -0.19231E+00  2944   0.237E+01-0.264E+01
CGA:  43    -0.118451544160E+04   -0.33855E-01   -0.32941E-01  2944   0.118E+01 0.303E-01
CGA:  44    -0.118455722251E+04   -0.41781E-01   -0.44726E-01  2944   0.130E+01-0.180E-01
CGA:  45    -0.118465195162E+04   -0.94729E-01   -0.91091E-01  2944   0.328E+01 0.215E+00
CGA:  46    -0.118478306426E+04   -0.13111E+00   -0.13102E+00  2944   0.126E+01-0.195E-01
CGA:  47    -0.118484360683E+04   -0.60543E-01   -0.63512E-01  2944   0.568E+00 0.106E+00
CGA:  48    -0.118486086243E+04   -0.17256E-01   -0.17414E-01  2944   0.214E+00-0.366E-02
CGA:  49    -0.118487495316E+04   -0.14091E-01   -0.13979E-01  2944   0.206E+00 0.873E-02
CGA:  50    -0.118488631423E+04   -0.11361E-01   -0.11377E-01  2944   0.198E+00 0.122E-02
CGA:  51    -0.118489639492E+04   -0.10081E-01   -0.10140E-01  2944   0.942E-01 0.295E-02
CGA:  52    -0.118490085485E+04   -0.44599E-02   -0.44624E-02  2944   0.600E-01 0.140E-04
CGA:  53    -0.118490377541E+04   -0.29206E-02   -0.29336E-02  2944   0.429E-01 0.500E-03
CGA:  54    -0.118490675014E+04   -0.29747E-02   -0.29704E-02  2944   0.392E-01 0.212E-03
CGA:  55    -0.118490865136E+04   -0.19012E-02   -0.19099E-02  2944   0.269E-01 0.259E-03
CGA:  56    -0.118491020404E+04   -0.15527E-02   -0.15527E-02  2944   0.175E-01-0.427E-04
CGA:  57    -0.118491125403E+04   -0.10500E-02   -0.10491E-02  2944   0.171E-01 0.854E-04
CGA:  58    -0.118491220069E+04   -0.94666E-03   -0.94648E-03  2944   0.991E-02-0.134E-03
CGA:  59    -0.118491279984E+04   -0.59915E-03   -0.59919E-03  2944   0.899E-02-0.578E-04
CGA:  60    -0.118491331240E+04   -0.51256E-03   -0.51259E-03  2944   0.723E-02-0.116E-03
CGA:  61    -0.118491382032E+04   -0.50792E-03   -0.50876E-03  2944   0.637E-02-0.770E-04
CGA:  62    -0.118491412692E+04   -0.30659E-03   -0.30589E-03  2944   0.379E-02-0.757E-04
CGA:  63    -0.118491435906E+04   -0.23214E-03   -0.23233E-03  2944   0.291E-02-0.478E-04
CGA:  64    -0.118491454893E+04   -0.18987E-03   -0.19038E-03  2944   0.334E-02-0.571E-04
CGA:  65    -0.118491476542E+04   -0.21649E-03   -0.21695E-03  2944   0.240E-02-0.562E-04
CGA:  66    -0.118491489841E+04   -0.13300E-03   -0.13292E-03  2944   0.176E-02-0.327E-04
CGA:  67    -0.118491499328E+04   -0.94867E-04   -0.94839E-04  2944   0.128E-02-0.758E-05
CGA:  68    -0.118491509976E+04   -0.10648E-03   -0.10653E-03  2944   0.178E-02-0.919E-06
CGA:  69    -0.118491520443E+04   -0.10467E-03   -0.10468E-03  2944   0.137E-02 0.149E-04
CGA:  70    -0.118491529304E+04   -0.88611E-04   -0.88560E-04  2944   0.103E-02 0.136E-04
CGA:  71    -0.118491535064E+04   -0.57607E-04   -0.57666E-04  2944   0.920E-03 0.138E-04
SDA:  72    -0.118491542292E+04   -0.72278E-04   -0.72067E-04  2944   0.998E-03 0.126E-04
CGA:  73    -0.118491544373E+04   -0.20808E-04   -0.20879E-04  2944   0.194E-03-0.552E-06
CGA:  74    -0.118491546545E+04   -0.21721E-04   -0.21655E-04  2944   0.417E-03 0.114E-05
CGA:  75    -0.118491552273E+04   -0.57279E-04   -0.57203E-04  2944   0.347E-03 0.908E-06
CGA:  76    -0.118491557832E+04   -0.55590E-04   -0.54379E-04  2944   0.282E-03 0.132E-04
CGA:  77    -0.118491559792E+04   -0.19597E-04   -0.19618E-04  2944   0.492E-03 0.828E-05
CGA:  78    -0.118491562536E+04   -0.27438E-04   -0.27676E-04  2944   0.308E-03 0.162E-04
CGA:  79    -0.118491566614E+04   -0.40785E-04   -0.39251E-04  2944   0.181E-03 0.279E-04
CGA:  80    -0.118491568974E+04   -0.23600E-04   -0.23004E-04  2944   0.203E-03 0.132E-04
CGA:  81    -0.118491571304E+04   -0.23295E-04   -0.22956E-04  2944   0.610E-03 0.106E-04
CGA:  82    -0.118491574972E+04   -0.36686E-04   -0.36991E-04  2944   0.417E-03 0.166E-04
CGA:  83    -0.118491578844E+04   -0.38713E-04   -0.38539E-04  2944   0.321E-03 0.114E-04
CGA:  84    -0.118491582434E+04   -0.35903E-04   -0.35724E-04  2944   0.335E-03 0.529E-05
CGA:  85    -0.118491586931E+04   -0.44972E-04   -0.45452E-04  2944   0.382E-03-0.848E-05
CGA:  86    -0.118491588661E+04   -0.17297E-04   -0.17059E-04  2944   0.423E-03-0.744E-05
CGA:  87    -0.118491591856E+04   -0.31949E-04   -0.31928E-04  2944   0.238E-03-0.222E-04
CGA:  88    -0.118491596174E+04   -0.43183E-04   -0.50746E-04  2944   0.299E-03-0.513E-04
CGA:  89    -0.118491597607E+04   -0.14325E-04   -0.13990E-04  2944   0.394E-03-0.129E-04
CGA:  90    -0.118491599853E+04   -0.22463E-04   -0.22177E-04  2944   0.319E-03-0.124E-04
CGA:  91    -0.118491602919E+04   -0.30661E-04   -0.30859E-04  2944   0.308E-03-0.114E-04
CGA:  92    -0.118491604675E+04   -0.17557E-04   -0.17507E-04  2944   0.333E-03-0.224E-05
CGA:  93    -0.118491606305E+04   -0.16305E-04   -0.16278E-04  2944   0.148E-03-0.576E-06
CGA:  94    -0.118491607470E+04   -0.11649E-04   -0.11652E-04  2944   0.149E-03 0.133E-05
CGA:  95    -0.118491608558E+04   -0.10882E-04   -0.10896E-04  2944   0.197E-03 0.191E-05
CGA:  96    -0.118491609425E+04   -0.86625E-05   -0.87507E-05  2944   0.675E-04 0.222E-05
   1 F= -.11849161E+04 E0= -.11848966E+04  d E =-.118492E+04  mag=   118.0000
       N       E                     dE             d eps       ncg     rms          ort
SDA:   1    -0.118491920508E+04   -0.31195E-02    0.00000E+00  2944   0.180E+00 0.000E+00
CGA:   2    -0.118492238695E+04   -0.31819E-02   -0.30497E-02  2944   0.760E-02 0.655E-02
CGA:   3    -0.118492349941E+04   -0.11125E-02   -0.11141E-02  2944   0.207E-01-0.232E-04
CGA:   4    -0.118492416656E+04   -0.66715E-03   -0.67064E-03  2944   0.892E-02-0.441E-04
CGA:   5    -0.118492467524E+04   -0.50868E-03   -0.50863E-03  2944   0.260E-02 0.852E-05
CGA:   6    -0.118492480656E+04   -0.13132E-03   -0.13112E-03  2944   0.326E-02 0.250E-06
CGA:   7    -0.118492495247E+04   -0.14591E-03   -0.14636E-03  2944   0.123E-02-0.190E-05
CGA:   8    -0.118492504744E+04   -0.94972E-04   -0.94974E-04  2944   0.764E-03-0.149E-05
CGA:   9    -0.118492507070E+04   -0.23263E-04   -0.23094E-04  2944   0.365E-03-0.139E-05
CGA:  10    -0.118492509081E+04   -0.20105E-04   -0.20046E-04  2944   0.198E-03-0.351E-05
CGA:  11    -0.118492510610E+04   -0.15293E-04   -0.15310E-04  2944   0.163E-03-0.231E-05
CGA:  12    -0.118492511183E+04   -0.57291E-05   -0.56918E-05  2944   0.105E-03-0.969E-06
   2 F= -.11849251E+04 E0= -.11849056E+04  d E =-.901759E-02  mag=   118.0000
       N       E                     dE             d eps       ncg     rms          ort
SDA:   1    -0.118354866322E+04    0.13764E+01    0.00000E+00  2944   0.517E+01 0.000E+00
CGA:   2    -0.118388627406E+04   -0.33761E+00   -0.33662E+00  2944   0.106E+02-0.157E+00
CGA:   3    -0.118454357584E+04   -0.65730E+00   -0.65700E+00  2944   0.609E+01-0.342E-01
CGA:   4    -0.118478613140E+04   -0.24256E+00   -0.25573E+00  2944   0.166E+01-0.837E-01
CGA:   5    -0.118486201067E+04   -0.75879E-01   -0.75352E-01  2944   0.208E+01-0.385E-02
CGA:   6    -0.118499678880E+04   -0.13478E+00   -0.13478E+00  2944   0.439E+00 0.132E-02
CGA:   7    -0.118502806101E+04   -0.31272E-01   -0.31189E-01  2944   0.451E+00 0.874E-02
CGA:   8    -0.118504379257E+04   -0.15732E-01   -0.15242E-01  2944   0.190E+00 0.707E-02
CGA:   9    -0.118505724981E+04   -0.13457E-01   -0.13458E-01  2944   0.954E-01-0.840E-04
CGA:  10    -0.118506338722E+04   -0.61374E-02   -0.61374E-02  2944   0.359E-01 0.112E-02
CGA:  11    -0.118506498403E+04   -0.15968E-02   -0.15923E-02  2944   0.391E-01-0.681E-06
CGA:  12    -0.118506793318E+04   -0.29492E-02   -0.29516E-02  2944   0.181E-01-0.119E-03
CGA:  13    -0.118506947851E+04   -0.15453E-02   -0.15404E-02  2944   0.870E-02 0.182E-03
CGA:  14    -0.118507015376E+04   -0.67524E-03   -0.67572E-03  2944   0.945E-02-0.241E-04
CGA:  15    -0.118507054887E+04   -0.39511E-03   -0.39578E-03  2944   0.715E-02 0.449E-05
CGA:  16    -0.118507109060E+04   -0.54174E-03   -0.54199E-03  2944   0.316E-02-0.134E-04
CGA:  17    -0.118507134604E+04   -0.25544E-03   -0.25579E-03  2944   0.174E-02-0.175E-04
CGA:  18    -0.118507155070E+04   -0.20466E-03   -0.20469E-03  2944   0.232E-02-0.109E-05
CGA:  19    -0.118507163750E+04   -0.86796E-04   -0.86562E-04  2944   0.144E-02-0.300E-05
CGA:  20    -0.118507172658E+04   -0.89088E-04   -0.89073E-04  2944   0.584E-03-0.261E-05
CGA:  21    -0.118507178774E+04   -0.61160E-04   -0.60925E-04  2944   0.391E-03 0.608E-05
CGA:  22    -0.118507182797E+04   -0.40228E-04   -0.40077E-04  2944   0.435E-03 0.452E-05
CGA:  23    -0.118507185421E+04   -0.26239E-04   -0.26302E-04  2944   0.453E-03 0.553E-05
CGA:  24    -0.118507187169E+04   -0.17480E-04   -0.17580E-04  2944   0.141E-03 0.359E-05
CGA:  25    -0.118507189442E+04   -0.22732E-04   -0.22419E-04  2944   0.141E-03 0.343E-05
CGA:  26    -0.118507191043E+04   -0.16008E-04   -0.15872E-04  2944   0.108E-03 0.354E-05
CGA:  27    -0.118507191742E+04   -0.69898E-05   -0.69952E-05  2944   0.867E-04 0.497E-06
   3 F= -.11850719E+04 E0= -.11850527E+04  d E =-.146806E+00  mag=   118.0000
       N       E                     dE             d eps       ncg     rms          ort
SDA:   1    -0.118023330993E+04    0.48386E+01    0.00000E+00  2944   0.148E+02 0.000E+00
CGA:   2    -0.118189555530E+04   -0.16622E+01   -0.16755E+01  2944   0.453E+02 0.187E+00
CGA:   3    -0.118380184391E+04   -0.19063E+01   -0.19587E+01  2944   0.863E+01-0.101E+01
CGA:   4    -0.118435885457E+04   -0.55701E+00   -0.56308E+00  2944   0.519E+01 0.379E+00
CGA:   5    -0.118494973253E+04   -0.59088E+00   -0.60347E+00  2944   0.155E+01-0.276E+00
CGA:   6    -0.118505592490E+04   -0.10619E+00   -0.10637E+00  2944   0.155E+01 0.406E-01
CGA:   7    -0.118512350567E+04   -0.67581E-01   -0.65653E-01  2944   0.914E+00 0.148E-01
CGA:   8    -0.118516996909E+04   -0.46463E-01   -0.46773E-01  2944   0.186E+00 0.544E-03
CGA:   9    -0.118518897194E+04   -0.19003E-01   -0.18824E-01  2944   0.131E+00 0.479E-02
CGA:  10    -0.118520034543E+04   -0.11373E-01   -0.11400E-01  2944   0.768E-01-0.140E-02
CGA:  11    -0.118520481302E+04   -0.44676E-02   -0.44610E-02  2944   0.852E-01-0.768E-04
CGA:  12    -0.118520843198E+04   -0.36190E-02   -0.36562E-02  2944   0.306E-01-0.201E-03
CGA:  13    -0.118521143592E+04   -0.30039E-02   -0.30090E-02  2944   0.234E-01-0.122E-03
CGA:  14    -0.118521346784E+04   -0.20319E-02   -0.20286E-02  2944   0.154E-01 0.166E-03
CGA:  15    -0.118521412240E+04   -0.65457E-03   -0.65178E-03  2944   0.130E-01 0.193E-04
CGA:  16    -0.118521513707E+04   -0.10147E-02   -0.10149E-02  2944   0.933E-02-0.204E-04
CGA:  17    -0.118521589966E+04   -0.76259E-03   -0.76227E-03  2944   0.368E-02 0.212E-04
CGA:  18    -0.118521620639E+04   -0.30673E-03   -0.30663E-03  2944   0.570E-02 0.515E-05
CGA:  19    -0.118521646075E+04   -0.25436E-03   -0.25408E-03  2944   0.306E-02 0.114E-05
CGA:  20    -0.118521667006E+04   -0.20931E-03   -0.20937E-03  2944   0.127E-02 0.123E-04
CGA:  21    -0.118521681116E+04   -0.14110E-03   -0.14102E-03  2944   0.133E-02 0.238E-05
CGA:  22    -0.118521688201E+04   -0.70849E-04   -0.71036E-04  2944   0.135E-02 0.672E-05
CGA:  23    -0.118521695405E+04   -0.72036E-04   -0.72209E-04  2944   0.649E-03 0.721E-05
CGA:  24    -0.118521702296E+04   -0.68913E-04   -0.68745E-04  2944   0.484E-03 0.514E-05
CGA:  25    -0.118521706540E+04   -0.42435E-04   -0.42381E-04  2944   0.575E-03 0.402E-05
CGA:  26    -0.118521709025E+04   -0.24851E-04   -0.24949E-04  2944   0.408E-03 0.242E-05
CGA:  27    -0.118521712217E+04   -0.31925E-04   -0.31923E-04  2944   0.197E-03 0.319E-06
CGA:  28    -0.118521713998E+04   -0.17804E-04   -0.17774E-04  2944   0.149E-03 0.153E-05
CGA:  29    -0.118521715032E+04   -0.10343E-04   -0.10340E-04  2944   0.205E-03-0.674E-06
CGA:  30    -0.118521715920E+04   -0.88790E-05   -0.88706E-05  2944   0.598E-04-0.294E-06
   4 F= -.11852172E+04 E0= -.11851982E+04  d E =-.145242E+00  mag=   118.0000
       N       E                     dE             d eps       ncg     rms          ort
SDA:   1    -0.117832009030E+04    0.68971E+01    0.00000E+00  2944   0.212E+02 0.000E+00
CGA:   2    -0.118135759509E+04   -0.30375E+01   -0.29677E+01  2944   0.535E+02 0.114E+01
CGA:   3    -0.118320085095E+04   -0.18433E+01   -0.22744E+01  2944   0.124E+02-0.308E+01
CGA:   4    -0.118403051129E+04   -0.82966E+00   -0.79990E+00  2944   0.122E+02-0.230E+01
CGA:   5    -0.118463651263E+04   -0.60600E+00   -0.59956E+00  2944   0.987E+01-0.139E+00
CGA:   6    -0.118498210597E+04   -0.34559E+00   -0.37341E+00  2944   0.184E+01-0.437E+00
CGA:   7    -0.118510173256E+04   -0.11963E+00   -0.11953E+00  2944   0.306E+01-0.135E-01
CGA:   8    -0.118521996265E+04   -0.11823E+00   -0.12145E+00  2944   0.545E+00-0.296E-01
CGA:   9    -0.118526203249E+04   -0.42070E-01   -0.42261E-01  2944   0.259E+00-0.135E-01
CGA:  10    -0.118527800530E+04   -0.15973E-01   -0.15920E-01  2944   0.289E+00-0.294E-02
CGA:  11    -0.118528997021E+04   -0.11965E-01   -0.12195E-01  2944   0.174E+00-0.109E-02
CGA:  12    -0.118530057981E+04   -0.10610E-01   -0.10668E-01  2944   0.527E-01 0.342E-02
CGA:  13    -0.118530528038E+04   -0.47006E-02   -0.47016E-02  2944   0.664E-01-0.271E-04
CGA:  14    -0.118530780799E+04   -0.25276E-02   -0.25415E-02  2944   0.425E-01-0.103E-03
CGA:  15    -0.118531086811E+04   -0.30601E-02   -0.30611E-02  2944   0.199E-01-0.106E-03
CGA:  16    -0.118531257074E+04   -0.17026E-02   -0.17046E-02  2944   0.195E-01-0.763E-04
CGA:  17    -0.118531324525E+04   -0.67451E-03   -0.67986E-03  2944   0.119E-01-0.616E-04
CGA:  18    -0.118531453186E+04   -0.12866E-02   -0.12846E-02  2944   0.105E-01 0.427E-04
CGA:  19    -0.118531519891E+04   -0.66705E-03   -0.66676E-03  2944   0.499E-02-0.200E-04
CGA:  20    -0.118531544566E+04   -0.24675E-03   -0.24732E-03  2944   0.588E-02 0.984E-05
CGA:  21    -0.118531583845E+04   -0.39280E-03   -0.39283E-03  2944   0.293E-02 0.218E-04
CGA:  22    -0.118531615244E+04   -0.31399E-03   -0.31376E-03  2944   0.185E-02 0.634E-05
CGA:  23    -0.118531626104E+04   -0.10859E-03   -0.10872E-03  2944   0.233E-02 0.895E-05
CGA:  24    -0.118531637549E+04   -0.11446E-03   -0.11461E-03  2944   0.107E-02 0.682E-05
CGA:  25    -0.118531648978E+04   -0.11429E-03   -0.11412E-03  2944   0.111E-02 0.414E-05
CGA:  26    -0.118531658073E+04   -0.90947E-04   -0.90840E-04  2944   0.683E-03 0.734E-05
CGA:  27    -0.118531660913E+04   -0.28399E-04   -0.28369E-04  2944   0.627E-03 0.161E-06
CGA:  28    -0.118531666527E+04   -0.56137E-04   -0.56174E-04  2944   0.400E-03-0.152E-05
CGA:  29    -0.118531670591E+04   -0.40647E-04   -0.40676E-04  2944   0.280E-03-0.104E-05
CGA:  30    -0.118531671790E+04   -0.11988E-04   -0.11936E-04  2944   0.238E-03-0.163E-05
CGA:  31    -0.118531673270E+04   -0.14800E-04   -0.14787E-04  2944   0.160E-03-0.184E-05
SDA:  32    -0.118531674847E+04   -0.15770E-04   -0.15800E-04  2944   0.791E-04-0.105E-05
CGA:  33    -0.118531675216E+04   -0.36857E-05   -0.36754E-05  2944   0.481E-04-0.437E-06
   5 F= -.11853168E+04 E0= -.11852978E+04  d E =-.995930E-01  mag=   118.0000
       N       E                     dE             d eps       ncg     rms          ort
SDA:   1    -0.116909041303E+04    0.16226E+02    0.00000E+00  2944   0.490E+02 0.000E+00
CGA:   2    -0.117878845755E+04   -0.96980E+01   -0.87895E+01  2944   0.244E+02 0.800E+01
CGA:   3    -0.118129037370E+04   -0.25019E+01   -0.32542E+01  2944   0.459E+02-0.115E+02
CGA:   4    -0.118243017517E+04   -0.11398E+01   -0.11371E+01  2944   0.453E+02 0.317E-01
CGA:   5    -0.118396272009E+04   -0.15325E+01   -0.14473E+01  2944   0.910E+01-0.840E+01
CGA:   6    -0.118426138903E+04   -0.29867E+00   -0.32290E+00  2944   0.778E+01-0.171E+00
CGA:   7    -0.118480450723E+04   -0.54312E+00   -0.54053E+00  2944   0.403E+01-0.849E+00
CGA:   8    -0.118498011405E+04   -0.17561E+00   -0.18013E+00  2944   0.295E+01 0.135E-01
CGA:   9    -0.118506907108E+04   -0.88957E-01   -0.88534E-01  2944   0.113E+01 0.139E-02
CGA:  10    -0.118516147414E+04   -0.92403E-01   -0.91694E-01  2944   0.908E+00 0.375E-01
CGA:  11    -0.118523204914E+04   -0.70575E-01   -0.71046E-01  2944   0.495E+00-0.453E-01
CGA:  12    -0.118525966552E+04   -0.27616E-01   -0.27810E-01  2944   0.365E+00 0.579E-02
CGA:  13    -0.118527493556E+04   -0.15270E-01   -0.15292E-01  2944   0.286E+00-0.106E-03
CGA:  14    -0.118529360603E+04   -0.18670E-01   -0.18679E-01  2944   0.121E+00 0.165E-02
CGA:  15    -0.118530560088E+04   -0.11995E-01   -0.11982E-01  2944   0.785E-01 0.330E-03
CGA:  16    -0.118530973985E+04   -0.41390E-02   -0.41514E-02  2944   0.489E-01 0.163E-03
CGA:  17    -0.118531246556E+04   -0.27257E-02   -0.27216E-02  2944   0.578E-01-0.791E-04
CGA:  18    -0.118531593829E+04   -0.34727E-02   -0.34702E-02  2944   0.206E-01-0.118E-03
CGA:  19    -0.118531797727E+04   -0.20390E-02   -0.20375E-02  2944   0.108E-01 0.409E-04
CGA:  20    -0.118531882125E+04   -0.84398E-03   -0.84318E-03  2944   0.138E-01 0.581E-04
CGA:  21    -0.118531948415E+04   -0.66289E-03   -0.66253E-03  2944   0.108E-01 0.292E-05
CGA:  22    -0.118532027152E+04   -0.78737E-03   -0.78721E-03  2944   0.461E-02 0.224E-04
CGA:  23    -0.118532068116E+04   -0.40964E-03   -0.40835E-03  2944   0.428E-02 0.503E-04
CGA:  24    -0.118532100835E+04   -0.32719E-03   -0.32704E-03  2944   0.496E-02 0.169E-04
CGA:  25    -0.118532124132E+04   -0.23297E-03   -0.23314E-03  2944   0.378E-02 0.200E-05
CGA:  26    -0.118532156595E+04   -0.32463E-03   -0.32431E-03  2944   0.155E-02 0.156E-04
CGA:  27    -0.118532177534E+04   -0.20939E-03   -0.20921E-03  2944   0.172E-02 0.274E-05
CGA:  28    -0.118532186847E+04   -0.93136E-04   -0.93220E-04  2944   0.214E-02 0.171E-05
CGA:  29    -0.118532200701E+04   -0.13854E-03   -0.13852E-03  2944   0.962E-03-0.156E-05
CGA:  30    -0.118532206948E+04   -0.62462E-04   -0.62468E-04  2944   0.508E-03 0.745E-06
CGA:  31    -0.118532213896E+04   -0.69489E-04   -0.69777E-04  2944   0.579E-03-0.438E-05
SDA:  32    -0.118532217554E+04   -0.36577E-04   -0.36578E-04  2944   0.412E-03-0.610E-06
CGA:  33    -0.118532218686E+04   -0.11322E-04   -0.11286E-04  2944   0.191E-03 0.180E-06
CGA:  34    -0.118532221138E+04   -0.24513E-04   -0.24482E-04  2944   0.198E-03 0.537E-06
CGA:  35    -0.118532223387E+04   -0.22491E-04   -0.22530E-04  2944   0.144E-03-0.101E-05
CGA:  36    -0.118532224183E+04   -0.79635E-05   -0.79669E-05  2944   0.101E-03 0.444E-07
   6 F= -.11853222E+04 E0= -.11853033E+04  d E =-.548967E-02  mag=   118.0000
       N       E                     dE             d eps       ncg     rms          ort
SDA:   1    -0.118384098700E+04    0.14812E+01    0.00000E+00  2944   0.466E+01 0.000E+00
CGA:   2    -0.118429839308E+04   -0.45741E+00   -0.44336E+00  2944   0.942E+01 0.511E+00
CGA:   3    -0.118491583834E+04   -0.61745E+00   -0.59120E+00  2944   0.433E+01-0.282E+00
CGA:   4    -0.118514013427E+04   -0.22430E+00   -0.22442E+00  2944   0.205E+01-0.121E-01
CGA:   5    -0.118525534016E+04   -0.11521E+00   -0.11467E+00  2944   0.148E+01-0.847E-02
CGA:   6    -0.118533003343E+04   -0.74693E-01   -0.75300E-01  2944   0.696E+00 0.297E-03
CGA:   7    -0.118536759950E+04   -0.37566E-01   -0.36978E-01  2944   0.319E+00-0.508E-02
CGA:   8    -0.118538116397E+04   -0.13564E-01   -0.13620E-01  2944   0.176E+00-0.323E-03
CGA:   9    -0.118539648346E+04   -0.15319E-01   -0.15354E-01  2944   0.124E+00-0.132E-02
CGA:  10    -0.118540050330E+04   -0.40198E-02   -0.40774E-02  2944   0.359E-01-0.961E-03
CGA:  11    -0.118540335813E+04   -0.28548E-02   -0.28597E-02  2944   0.369E-01-0.260E-03
CGA:  12    -0.118540523952E+04   -0.18814E-02   -0.18853E-02  2944   0.230E-01 0.429E-04
CGA:  13    -0.118540657532E+04   -0.13358E-02   -0.13342E-02  2944   0.125E-01-0.540E-04
CGA:  14    -0.118540727276E+04   -0.69744E-03   -0.69732E-03  2944   0.914E-02-0.620E-06
CGA:  15    -0.118540781995E+04   -0.54719E-03   -0.54706E-03  2944   0.725E-02-0.591E-05
CGA:  16    -0.118540828009E+04   -0.46014E-03   -0.46021E-03  2944   0.407E-02 0.185E-04
CGA:  17    -0.118540848598E+04   -0.20589E-03   -0.20583E-03  2944   0.322E-02 0.146E-05
CGA:  18    -0.118540871265E+04   -0.22667E-03   -0.22664E-03  2944   0.181E-02 0.464E-05
CGA:  19    -0.118540880977E+04   -0.97119E-04   -0.97087E-04  2944   0.163E-02-0.319E-06
CGA:  20    -0.118540892092E+04   -0.11116E-03   -0.11114E-03  2944   0.949E-03 0.399E-05
CGA:  21    -0.118540897162E+04   -0.50701E-04   -0.50669E-04  2944   0.630E-03-0.174E-05
CGA:  22    -0.118540900590E+04   -0.34275E-04   -0.34279E-04  2944   0.430E-03-0.109E-06
CGA:  23    -0.118540904004E+04   -0.34139E-04   -0.34153E-04  2944   0.410E-03-0.809E-06
CGA:  24    -0.118540905915E+04   -0.19115E-04   -0.19129E-04  2944   0.214E-03 0.412E-06
CGA:  25    -0.118540907348E+04   -0.14330E-04   -0.14331E-04  2944   0.175E-03-0.296E-06
CGA:  26    -0.118540908503E+04   -0.11554E-04   -0.11550E-04  2944   0.178E-03 0.151E-05
CGA:  27    -0.118540909611E+04   -0.11075E-04   -0.11078E-04  2944   0.119E-03 0.138E-05
CGA:  28    -0.118540910336E+04   -0.72492E-05   -0.72529E-05  2944   0.816E-04 0.117E-05
   7 F= -.11854091E+04 E0= -.11853900E+04  d E =-.868615E-01  mag=   118.0000
       N       E                     dE             d eps       ncg     rms          ort
SDA:   1    -0.118502021940E+04    0.38888E+00    0.00000E+00  2944   0.130E+01 0.000E+00
CGA:   2    -0.118512285423E+04   -0.10263E+00   -0.10319E+00  2944   0.329E+01-0.226E-01
CGA:   3    -0.118530725410E+04   -0.18440E+00   -0.18435E+00  2944   0.745E+00-0.280E-02
CGA:   4    -0.118535600739E+04   -0.48753E-01   -0.48709E-01  2944   0.479E+00 0.165E-01
CGA:   5    -0.118539029321E+04   -0.34286E-01   -0.34328E-01  2944   0.504E+00-0.412E-02
CGA:   6    -0.118540642343E+04   -0.16130E-01   -0.16209E-01  2944   0.140E+00-0.126E-02
CGA:   7    -0.118541574092E+04   -0.93175E-02   -0.93033E-02  2944   0.571E-01 0.205E-02
CGA:   8    -0.118542144897E+04   -0.57080E-02   -0.57273E-02  2944   0.569E-01-0.458E-03
CGA:   9    -0.118542299102E+04   -0.15420E-02   -0.15543E-02  2944   0.152E-01-0.259E-03
CGA:  10    -0.118542410555E+04   -0.11145E-02   -0.11153E-02  2944   0.870E-02-0.429E-04
CGA:  11    -0.118542491550E+04   -0.80994E-03   -0.81000E-03  2944   0.621E-02-0.303E-05
CGA:  12    -0.118542521957E+04   -0.30407E-03   -0.30436E-03  2944   0.547E-02 0.319E-05
CGA:  13    -0.118542546587E+04   -0.24630E-03   -0.24631E-03  2944   0.238E-02-0.175E-05
CGA:  14    -0.118542567723E+04   -0.21136E-03   -0.21155E-03  2944   0.131E-02-0.678E-05
CGA:  15    -0.118542580841E+04   -0.13117E-03   -0.13113E-03  2944   0.133E-02 0.102E-05
CGA:  16    -0.118542585718E+04   -0.48776E-04   -0.48754E-04  2944   0.880E-03 0.325E-06
CGA:  17    -0.118542592797E+04   -0.70786E-04   -0.70739E-04  2944   0.382E-03 0.312E-05
CGA:  18    -0.118542596090E+04   -0.32932E-04   -0.32836E-04  2944   0.358E-03 0.453E-05
CGA:  19    -0.118542599317E+04   -0.32272E-04   -0.32247E-04  2944   0.380E-03 0.122E-05
CGA:  20    -0.118542600446E+04   -0.11286E-04   -0.11317E-04  2944   0.115E-03 0.605E-06
CGA:  21    -0.118542601868E+04   -0.14226E-04   -0.14204E-04  2944   0.926E-04 0.371E-06
CGA:  22    -0.118542602811E+04   -0.94273E-05   -0.94846E-05  2944   0.830E-04-0.172E-05
   8 F= -.11854260E+04 E0= -.11854068E+04  d E =-.169248E-01  mag=   118.0000
       N       E                     dE             d eps       ncg     rms          ort
SDA:   1    -0.118460118087E+04    0.82484E+00    0.00000E+00  2944   0.453E+01 0.000E+00
CGA:   2    -0.118474558359E+04   -0.14440E+00   -0.16014E+00  2944   0.383E+01-0.262E+00
CGA:   3    -0.118519541960E+04   -0.44984E+00   -0.45536E+00  2944   0.158E+01-0.927E-01
CGA:   4    -0.118528529153E+04   -0.89872E-01   -0.90563E-01  2944   0.136E+01 0.171E-01
CGA:   5    -0.118535987717E+04   -0.74586E-01   -0.74075E-01  2944   0.111E+01-0.704E-02
CGA:   6    -0.118540747888E+04   -0.47602E-01   -0.48066E-01  2944   0.194E+00-0.264E-02
CGA:   7    -0.118542540168E+04   -0.17923E-01   -0.17980E-01  2944   0.185E+00-0.174E-02
CGA:   8    -0.118543264306E+04   -0.72414E-02   -0.72991E-02  2944   0.115E+00-0.462E-03
CGA:   9    -0.118543931098E+04   -0.66679E-02   -0.66757E-02  2944   0.239E-01 0.290E-03
CGA:  10    -0.118544088884E+04   -0.15779E-02   -0.15779E-02  2944   0.208E-01 0.307E-04
CGA:  11    -0.118544209258E+04   -0.12037E-02   -0.12029E-02  2944   0.215E-01-0.321E-04
CGA:  12    -0.118544315676E+04   -0.10642E-02   -0.10660E-02  2944   0.497E-02 0.220E-04
CGA:  13    -0.118544361960E+04   -0.46284E-03   -0.46359E-03  2944   0.478E-02-0.227E-04
CGA:  14    -0.118544384354E+04   -0.22394E-03   -0.22420E-03  2944   0.433E-02 0.140E-05
CGA:  15    -0.118544413740E+04   -0.29386E-03   -0.29386E-03  2944   0.194E-02-0.198E-05
CGA:  16    -0.118544427947E+04   -0.14207E-03   -0.14212E-03  2944   0.138E-02-0.353E-05
CGA:  17    -0.118544435607E+04   -0.76604E-04   -0.76645E-04  2944   0.149E-02 0.341E-05
CGA:  18    -0.118544444326E+04   -0.87189E-04   -0.87258E-04  2944   0.790E-03 0.772E-05
CGA:  19    -0.118544452030E+04   -0.77044E-04   -0.76983E-04  2944   0.528E-03 0.191E-05
CGA:  20    -0.118544454328E+04   -0.22979E-04   -0.23019E-04  2944   0.432E-03 0.133E-05
CGA:  21    -0.118544457341E+04   -0.30128E-04   -0.30125E-04  2944   0.278E-03 0.616E-06
CGA:  22    -0.118544459866E+04   -0.25253E-04   -0.25273E-04  2944   0.228E-03-0.962E-06
CGA:  23    -0.118544460973E+04   -0.11068E-04   -0.11057E-04  2944   0.170E-03-0.661E-06
CGA:  24    -0.118544461788E+04   -0.81503E-05   -0.81582E-05  2944   0.833E-04 0.219E-06
CGA:  25    -0.118544462907E+04   -0.11184E-04   -0.11221E-04  2944   0.879E-04-0.602E-06
CGA:  26    -0.118544463296E+04   -0.38919E-05   -0.38963E-05  2944   0.688E-04 0.118E-06
   9 F= -.11854446E+04 E0= -.11854252E+04  d E =-.186048E-01  mag=   118.0000
       N       E                     dE             d eps       ncg     rms          ort
SDA:   1    -0.118251201109E+04    0.29326E+01    0.00000E+00  2944   0.109E+02 0.000E+00
CGA:   2    -0.118323836971E+04   -0.72636E+00   -0.72808E+00  2944   0.166E+02 0.921E+00
CGA:   3    -0.118440167217E+04   -0.11633E+01   -0.11556E+01  2944   0.984E+01-0.105E+01
CGA:   4    -0.118483440107E+04   -0.43273E+00   -0.43621E+00  2944   0.373E+01-0.385E-01
CGA:   5    -0.118512284041E+04   -0.28844E+00   -0.28942E+00  2944   0.494E+01-0.499E-01
CGA:   6    -0.118531415697E+04   -0.19132E+00   -0.19244E+00  2944   0.104E+01-0.274E-01
CGA:   7    -0.118537965624E+04   -0.65499E-01   -0.65374E-01  2944   0.855E+00-0.226E-01
CGA:   8    -0.118541319601E+04   -0.33540E-01   -0.33703E-01  2944   0.401E+00-0.109E-02
CGA:   9    -0.118544594743E+04   -0.32751E-01   -0.32767E-01  2944   0.174E+00-0.632E-03
CGA:  10    -0.118545125835E+04   -0.53109E-02   -0.53904E-02  2944   0.736E-01-0.141E-02
CGA:  11    -0.118545869767E+04   -0.74393E-02   -0.74600E-02  2944   0.666E-01-0.468E-03
CGA:  12    -0.118546157102E+04   -0.28734E-02   -0.28820E-02  2944   0.411E-01 0.319E-05
CGA:  13    -0.118546371674E+04   -0.21457E-02   -0.21423E-02  2944   0.168E-01-0.783E-04
CGA:  14    -0.118546486517E+04   -0.11484E-02   -0.11482E-02  2944   0.211E-01 0.276E-04
CGA:  15    -0.118546606153E+04   -0.11964E-02   -0.11962E-02  2944   0.116E-01-0.474E-05
CGA:  16    -0.118546664508E+04   -0.58354E-03   -0.58372E-03  2944   0.621E-02 0.129E-04
CGA:  17    -0.118546707935E+04   -0.43427E-03   -0.43429E-03  2944   0.781E-02 0.121E-05
CGA:  18    -0.118546749947E+04   -0.42012E-03   -0.42011E-03  2944   0.373E-02 0.698E-05
CGA:  19    -0.118546780244E+04   -0.30297E-03   -0.30268E-03  2944   0.487E-02 0.138E-04
CGA:  20    -0.118546800466E+04   -0.20222E-03   -0.20257E-03  2944   0.162E-02 0.748E-05
CGA:  21    -0.118546816553E+04   -0.16087E-03   -0.16097E-03  2944   0.283E-02-0.234E-05
CGA:  22    -0.118546829307E+04   -0.12753E-03   -0.12757E-03  2944   0.123E-02 0.180E-05
CGA:  23    -0.118546838636E+04   -0.93290E-04   -0.93296E-04  2944   0.104E-02-0.318E-06
CGA:  24    -0.118546843215E+04   -0.45788E-04   -0.45834E-04  2944   0.672E-03 0.914E-06
CGA:  25    -0.118546848897E+04   -0.56820E-04   -0.56841E-04  2944   0.619E-03-0.828E-06
CGA:  26    -0.118546852238E+04   -0.33416E-04   -0.33436E-04  2944   0.507E-03 0.167E-05
CGA:  27    -0.118546854920E+04   -0.26817E-04   -0.26819E-04  2944   0.232E-03 0.602E-06
CGA:  28    -0.118546856757E+04   -0.18369E-04   -0.18357E-04  2944   0.354E-03 0.671E-06
CGA:  29    -0.118546858698E+04   -0.19411E-04   -0.19405E-04  2944   0.167E-03-0.438E-06
CGA:  30    -0.118546859656E+04   -0.95865E-05   -0.95873E-05  2944   0.127E-03 0.118E-06
  10 F= -.11854686E+04 E0= -.11854488E+04  d E =-.239636E-01  mag=   118.0000
       N       E                     dE             d eps       ncg     rms          ort
SDA:   1    -0.116912240221E+04    0.16346E+02    0.00000E+00  2944   0.424E+02 0.000E+00
CGA:   2    -0.117492436611E+04   -0.58020E+01   -0.60068E+01  2944   0.111E+03 0.973E+00
CGA:   3    -0.118044640859E+04   -0.55220E+01   -0.51741E+01  2944   0.397E+02-0.906E+01
CGA:   4    -0.118216362077E+04   -0.17172E+01   -0.17263E+01  2944   0.148E+02-0.525E+00
CGA:   5    -0.118286400155E+04   -0.70038E+00   -0.63075E+00  2944   0.130E+02-0.293E+00
CGA:   6    -0.118372304716E+04   -0.85905E+00   -0.86740E+00  2944   0.833E+01-0.108E+01
CGA:   7    -0.118403568402E+04   -0.31264E+00   -0.30667E+00  2944   0.340E+01-0.122E+00
CGA:   8    -0.118416539722E+04   -0.12971E+00   -0.12286E+00  2944   0.199E+01 0.468E-01
CGA:   9    -0.118428462015E+04   -0.11922E+00   -0.11867E+00  2944   0.165E+01-0.945E-01
CGA:  10    -0.118438195799E+04   -0.97338E-01   -0.97289E-01  2944   0.402E+00 0.567E-01
CGA:  11    -0.118440731862E+04   -0.25361E-01   -0.25366E-01  2944   0.307E+00 0.517E-02
CGA:  12    -0.118443059766E+04   -0.23279E-01   -0.23240E-01  2944   0.385E+00 0.209E-02
CGA:  13    -0.118444616582E+04   -0.15568E-01   -0.15518E-01  2944   0.209E+00 0.361E-04
CGA:  14    -0.118445895922E+04   -0.12793E-01   -0.12790E-01  2944   0.666E-01 0.833E-02
CGA:  15    -0.118446644968E+04   -0.74905E-02   -0.73015E-02  2944   0.600E-01 0.386E-02
CGA:  16    -0.118447078909E+04   -0.43394E-02   -0.43391E-02  2944   0.441E-01 0.336E-04
CGA:  17    -0.118447333441E+04   -0.25453E-02   -0.25532E-02  2944   0.460E-01 0.565E-03
CGA:  18    -0.118447567731E+04   -0.23429E-02   -0.23485E-02  2944   0.137E-01 0.117E-03
CGA:  19    -0.118447701434E+04   -0.13370E-02   -0.13365E-02  2944   0.961E-02 0.114E-04
CGA:  20    -0.118447757388E+04   -0.55953E-03   -0.55971E-03  2944   0.113E-01 0.101E-04
CGA:  21    -0.118447833610E+04   -0.76222E-03   -0.76158E-03  2944   0.522E-02 0.102E-03
CGA:  22    -0.118447865506E+04   -0.31896E-03   -0.31912E-03  2944   0.234E-02 0.231E-04
CGA:  23    -0.118447887545E+04   -0.22039E-03   -0.21992E-03  2944   0.307E-02 0.142E-04
CGA:  24    -0.118447901755E+04   -0.14210E-03   -0.14238E-03  2944   0.195E-02 0.841E-05
CGA:  25    -0.118447921035E+04   -0.19280E-03   -0.19201E-03  2944   0.123E-02 0.222E-04
CGA:  26    -0.118447932233E+04   -0.11198E-03   -0.11189E-03  2944   0.986E-03 0.468E-05
CGA:  27    -0.118447937679E+04   -0.54466E-04   -0.54481E-04  2944   0.113E-02 0.156E-05
CGA:  28    -0.118447947490E+04   -0.98107E-04   -0.97990E-04  2944   0.681E-03 0.537E-05
CGA:  29    -0.118447953091E+04   -0.56012E-04   -0.55980E-04  2944   0.455E-03 0.197E-05
CGA:  30    -0.118447956616E+04   -0.35250E-04   -0.35260E-04  2944   0.362E-03-0.110E-05
CGA:  31    -0.118447958490E+04   -0.18738E-04   -0.18704E-04  2944   0.378E-03-0.173E-05
SDA:  32    -0.118447961989E+04   -0.34986E-04   -0.35043E-04  2944   0.847E-04-0.235E-05
CGA:  33    -0.118447962698E+04   -0.70954E-05   -0.71031E-05  2944   0.120E-03-0.578E-06
  11 F= -.11844796E+04 E0= -.11844613E+04  d E =0.988970E+00  mag=   118.0000
       N       E                     dE             d eps       ncg     rms          ort
SDA:   1    -0.118277688523E+04    0.17027E+01    0.00000E+00  2944   0.670E+01 0.000E+00
CGA:   2    -0.118384024196E+04   -0.10634E+01   -0.93526E+00  2944   0.794E+01 0.165E+01
CGA:   3    -0.118451316584E+04   -0.67292E+00   -0.67024E+00  2944   0.108E+02-0.258E+00
CGA:   4    -0.118485431585E+04   -0.34115E+00   -0.31890E+00  2944   0.330E+01 0.432E+00
CGA:   5    -0.118496674715E+04   -0.11243E+00   -0.11471E+00  2944   0.260E+01-0.970E-01
CGA:   6    -0.118505488937E+04   -0.88142E-01   -0.87204E-01  2944   0.117E+01 0.285E-02
CGA:   7    -0.118510074686E+04   -0.45857E-01   -0.45956E-01  2944   0.152E+01-0.520E-02
CGA:   8    -0.118515911316E+04   -0.58366E-01   -0.58058E-01  2944   0.660E+00 0.351E-04
CGA:   9    -0.118517868800E+04   -0.19575E-01   -0.19664E-01  2944   0.459E+00-0.297E-02
CGA:  10    -0.118519552340E+04   -0.16835E-01   -0.17122E-01  2944   0.184E+00-0.195E-02
CGA:  11    -0.118520037068E+04   -0.48473E-02   -0.47680E-02  2944   0.120E+00 0.188E-02
CGA:  12    -0.118520763854E+04   -0.72679E-02   -0.72689E-02  2944   0.129E+00-0.111E-02
CGA:  13    -0.118521114922E+04   -0.35107E-02   -0.35377E-02  2944   0.818E-01-0.528E-03
CGA:  14    -0.118521514455E+04   -0.39953E-02   -0.40095E-02  2944   0.691E-01 0.555E-03
CGA:  15    -0.118521684183E+04   -0.16973E-02   -0.16956E-02  2944   0.279E-01 0.551E-04
CGA:  16    -0.118521830021E+04   -0.14584E-02   -0.14580E-02  2944   0.318E-01-0.479E-04
CGA:  17    -0.118521921819E+04   -0.91798E-03   -0.91908E-03  2944   0.190E-01-0.159E-04
CGA:  18    -0.118522037397E+04   -0.11558E-02   -0.11547E-02  2944   0.272E-01 0.106E-03
CGA:  19    -0.118522105889E+04   -0.68492E-03   -0.68198E-03  2944   0.769E-02 0.710E-04
CGA:  20    -0.118522139752E+04   -0.33863E-03   -0.33826E-03  2944   0.901E-02-0.127E-04
CGA:  21    -0.118522167594E+04   -0.27842E-03   -0.27926E-03  2944   0.397E-02-0.454E-05
CGA:  22    -0.118522186556E+04   -0.18962E-03   -0.18968E-03  2944   0.617E-02 0.116E-04
CGA:  23    -0.118522209897E+04   -0.23341E-03   -0.23381E-03  2944   0.261E-02 0.118E-04
CGA:  24    -0.118522218666E+04   -0.87686E-04   -0.87713E-04  2944   0.212E-02 0.843E-06
CGA:  25    -0.118522225835E+04   -0.71691E-04   -0.71618E-04  2944   0.799E-03 0.124E-05
CGA:  26    -0.118522228880E+04   -0.30451E-04   -0.30489E-04  2944   0.958E-03 0.304E-05
CGA:  27    -0.118522233569E+04   -0.46894E-04   -0.46892E-04  2944   0.614E-03 0.641E-05
CGA:  28    -0.118522235755E+04   -0.21859E-04   -0.21868E-04  2944   0.617E-03 0.788E-06
CGA:  29    -0.118522238573E+04   -0.28176E-04   -0.28178E-04  2944   0.290E-03 0.720E-06
CGA:  30    -0.118522239366E+04   -0.79289E-05   -0.79544E-05  2944   0.195E-03 0.105E-05
CGA:  31    -0.118522240473E+04   -0.11078E-04   -0.11057E-04  2944   0.191E-03 0.193E-05
SDA:  32    -0.118522241123E+04   -0.64944E-05   -0.64944E-05  2944   0.181E-03 0.277E-07
  12 F= -.11852224E+04 E0= -.11852034E+04  d E =-.742784E+00  mag=   118.0000
       N       E                     dE             d eps       ncg     rms          ort
SDA:   1    -0.118448012719E+04    0.74228E+00    0.00000E+00  2944   0.252E+01 0.000E+00
CGA:   2    -0.118487910351E+04   -0.39898E+00   -0.37701E+00  2944   0.586E+01 0.258E+00
CGA:   3    -0.118517776137E+04   -0.29866E+00   -0.29707E+00  2944   0.362E+01-0.140E+00
CGA:   4    -0.118532105512E+04   -0.14329E+00   -0.14139E+00  2944   0.580E+00-0.434E-01
CGA:   5    -0.118537578532E+04   -0.54730E-01   -0.53815E-01  2944   0.401E+00 0.194E-01
CGA:   6    -0.118541550263E+04   -0.39717E-01   -0.39887E-01  2944   0.358E+00-0.349E-02
CGA:   7    -0.118542625074E+04   -0.10748E-01   -0.10710E-01  2944   0.114E+00 0.419E-03
CGA:   8    -0.118543309668E+04   -0.68459E-02   -0.68472E-02  2944   0.488E-01-0.805E-04
CGA:   9    -0.118543793443E+04   -0.48378E-02   -0.48845E-02  2944   0.345E-01-0.972E-03
CGA:  10    -0.118544001201E+04   -0.20776E-02   -0.20760E-02  2944   0.320E-01 0.171E-03
CGA:  11    -0.118544118867E+04   -0.11767E-02   -0.11733E-02  2944   0.112E-01 0.965E-05
CGA:  12    -0.118544232728E+04   -0.11386E-02   -0.11381E-02  2944   0.775E-02 0.102E-04
CGA:  13    -0.118544297696E+04   -0.64969E-03   -0.64970E-03  2944   0.893E-02 0.939E-06
CGA:  14    -0.118544331546E+04   -0.33850E-03   -0.33885E-03  2944   0.409E-02 0.576E-05
CGA:  15    -0.118544356084E+04   -0.24538E-03   -0.24539E-03  2944   0.179E-02-0.147E-05
CGA:  16    -0.118544378234E+04   -0.22149E-03   -0.22059E-03  2944   0.186E-02 0.138E-04
CGA:  17    -0.118544386552E+04   -0.83183E-04   -0.83243E-04  2944   0.157E-02 0.422E-05
CGA:  18    -0.118544395353E+04   -0.88007E-04   -0.88030E-04  2944   0.470E-03 0.593E-05
CGA:  19    -0.118544398779E+04   -0.34268E-04   -0.34217E-04  2944   0.317E-03 0.396E-05
CGA:  20    -0.118544401456E+04   -0.26763E-04   -0.26715E-04  2944   0.528E-03 0.200E-05
CGA:  21    -0.118544403575E+04   -0.21197E-04   -0.21195E-04  2944   0.135E-03 0.169E-06
CGA:  22    -0.118544404776E+04   -0.12006E-04   -0.11981E-04  2944   0.914E-04 0.825E-06
CGA:  23    -0.118544405491E+04   -0.71502E-05   -0.71626E-05  2944   0.131E-03-0.766E-06
  13 F= -.11854441E+04 E0= -.11854246E+04  d E =-.221644E+00  mag=   118.0000
       N       E                     dE             d eps       ncg     rms          ort
SDA:   1    -0.118513003336E+04    0.31401E+00    0.00000E+00  2944   0.102E+01 0.000E+00
CGA:   2    -0.118521442201E+04   -0.84389E-01   -0.83718E-01  2944   0.281E+01 0.258E-01
CGA:   3    -0.118541974180E+04   -0.20532E+00   -0.20552E+00  2944   0.469E+00-0.148E-01
CGA:   4    -0.118545025931E+04   -0.30518E-01   -0.30489E-01  2944   0.264E+00 0.791E-02
CGA:   5    -0.118546245856E+04   -0.12199E-01   -0.12165E-01  2944   0.260E+00-0.120E-03
CGA:   6    -0.118548169486E+04   -0.19236E-01   -0.19189E-01  2944   0.653E-01 0.282E-02
CGA:   7    -0.118548602274E+04   -0.43279E-02   -0.43288E-02  2944   0.519E-01-0.187E-03
CGA:   8    -0.118548814175E+04   -0.21190E-02   -0.21218E-02  2944   0.283E-01 0.498E-04
CGA:   9    -0.118548972529E+04   -0.15835E-02   -0.15827E-02  2944   0.125E-01-0.403E-04
CGA:  10    -0.118549077897E+04   -0.10537E-02   -0.10556E-02  2944   0.929E-02-0.659E-04
CGA:  11    -0.118549115732E+04   -0.37834E-03   -0.37792E-03  2944   0.661E-02-0.402E-05
CGA:  12    -0.118549158243E+04   -0.42511E-03   -0.42504E-03  2944   0.316E-02 0.151E-04
CGA:  13    -0.118549191134E+04   -0.32891E-03   -0.32891E-03  2944   0.312E-02-0.631E-07
CGA:  14    -0.118549202219E+04   -0.11085E-03   -0.11102E-03  2944   0.165E-02 0.252E-05
CGA:  15    -0.118549213475E+04   -0.11256E-03   -0.11254E-03  2944   0.737E-03 0.422E-05
CGA:  16    -0.118549221469E+04   -0.79938E-04   -0.79401E-04  2944   0.107E-02 0.119E-04
CGA:  17    -0.118549225329E+04   -0.38606E-04   -0.38759E-04  2944   0.471E-03 0.568E-05
CGA:  18    -0.118549229139E+04   -0.38100E-04   -0.37948E-04  2944   0.283E-03 0.897E-05
CGA:  19    -0.118549230730E+04   -0.15902E-04   -0.15921E-04  2944   0.169E-03 0.188E-05
CGA:  20    -0.118549231546E+04   -0.81658E-05   -0.81814E-05  2944   0.164E-03 0.877E-06
CGA:  21    -0.118549233003E+04   -0.14563E-04   -0.14546E-04  2944   0.538E-04 0.677E-06
CGA:  22    -0.118549233368E+04   -0.36522E-05   -0.36542E-05  2944   0.830E-04-0.619E-06
  14 F= -.11854923E+04 E0= -.11854727E+04  d E =-.482788E-01  mag=   118.0000
       N       E                     dE             d eps       ncg     rms          ort
SDA:   1    -0.118544295622E+04    0.49374E-01    0.00000E+00  2944   0.143E+00 0.000E+00
CGA:   2    -0.118547575819E+04   -0.32802E-01   -0.33022E-01  2944   0.287E+00-0.148E-02
CGA:   3    -0.118548571773E+04   -0.99595E-02   -0.98944E-02  2944   0.137E+00 0.745E-03
CGA:   4    -0.118549148406E+04   -0.57663E-02   -0.57706E-02  2944   0.342E-01-0.514E-04
CGA:   5    -0.118549514968E+04   -0.36656E-02   -0.36827E-02  2944   0.328E-01-0.367E-03
CGA:   6    -0.118549720686E+04   -0.20572E-02   -0.20613E-02  2944   0.138E-01 0.271E-03
CGA:   7    -0.118549772716E+04   -0.52030E-03   -0.51972E-03  2944   0.868E-02 0.396E-04
CGA:   8    -0.118549822439E+04   -0.49723E-03   -0.49803E-03  2944   0.305E-02 0.372E-04
CGA:   9    -0.118549852890E+04   -0.30451E-03   -0.30435E-03  2944   0.178E-02 0.581E-05
CGA:  10    -0.118549859717E+04   -0.68274E-04   -0.68413E-04  2944   0.122E-02-0.277E-06
CGA:  11    -0.118549867068E+04   -0.73505E-04   -0.73472E-04  2944   0.658E-03-0.304E-05
CGA:  12    -0.118549875171E+04   -0.81035E-04   -0.81221E-04  2944   0.510E-03-0.334E-05
CGA:  13    -0.118549877001E+04   -0.18293E-04   -0.18277E-04  2944   0.300E-03-0.267E-06
CGA:  14    -0.118549878942E+04   -0.19414E-04   -0.19422E-04  2944   0.204E-03 0.175E-05
CGA:  15    -0.118549880432E+04   -0.14897E-04   -0.14890E-04  2944   0.118E-03 0.191E-05
CGA:  16    -0.118549881414E+04   -0.98199E-05   -0.97678E-05  2944   0.158E-03 0.410E-05
  15 F= -.11854988E+04 E0= -.11854791E+04  d E =-.648046E-02  mag=   118.0000
       N       E                     dE             d eps       ncg     rms          ort
SDA:   1    -0.118543669941E+04    0.62105E-01    0.00000E+00  2944   0.259E+00 0.000E+00
CGA:   2    -0.118544770718E+04   -0.11008E-01   -0.11081E-01  2944   0.339E+00-0.302E-03
CGA:   3    -0.118548772303E+04   -0.40016E-01   -0.40108E-01  2944   0.975E-01-0.171E-02
CGA:   4    -0.118549491047E+04   -0.71874E-02   -0.71902E-02  2944   0.518E-01-0.318E-03
CGA:   5    -0.118549932375E+04   -0.44133E-02   -0.44104E-02  2944   0.399E-01 0.154E-03
CGA:   6    -0.118550110820E+04   -0.17844E-02   -0.17939E-02  2944   0.284E-01 0.413E-04
CGA:   7    -0.118550221668E+04   -0.11085E-02   -0.11049E-02  2944   0.705E-02 0.884E-04
CGA:   8    -0.118550299468E+04   -0.77800E-03   -0.77407E-03  2944   0.328E-02 0.880E-04
CGA:   9    -0.118550324839E+04   -0.25372E-03   -0.25380E-03  2944   0.251E-02-0.293E-05
CGA:  10    -0.118550332017E+04   -0.71775E-04   -0.71921E-04  2944   0.846E-03 0.158E-05
CGA:  11    -0.118550343356E+04   -0.11339E-03   -0.11354E-03  2944   0.832E-03-0.229E-05
CGA:  12    -0.118550348972E+04   -0.56156E-04   -0.56145E-04  2944   0.311E-03-0.365E-05
CGA:  13    -0.118550351471E+04   -0.24997E-04   -0.24996E-04  2944   0.389E-03-0.459E-07
CGA:  14    -0.118550352955E+04   -0.14842E-04   -0.14887E-04  2944   0.209E-03 0.120E-05
CGA:  15    -0.118550354634E+04   -0.16787E-04   -0.16758E-04  2944   0.112E-03 0.280E-05
CGA:  16    -0.118550355711E+04   -0.10769E-04   -0.10660E-04  2944   0.494E-04 0.458E-05
CGA:  17    -0.118550356100E+04   -0.38860E-05   -0.38774E-05  2944   0.100E-03 0.212E-05
  16 F= -.11855036E+04 E0= -.11854839E+04  d E =-.474686E-02  mag=   118.0000
       N       E                     dE             d eps       ncg     rms          ort
SDA:   1    -0.118548599254E+04    0.17565E-01    0.00000E+00  2944   0.154E+00 0.000E+00
CGA:   2    -0.118548979646E+04   -0.38039E-02   -0.38601E-02  2944   0.633E-01-0.168E-02
CGA:   3    -0.118549770672E+04   -0.79103E-02   -0.80115E-02  2944   0.766E-01-0.166E-02
CGA:   4    -0.118550263787E+04   -0.49311E-02   -0.49387E-02  2944   0.193E-01 0.590E-03
CGA:   5    -0.118550405369E+04   -0.14158E-02   -0.14160E-02  2944   0.107E-01-0.461E-04
CGA:   6    -0.118550501039E+04   -0.95670E-03   -0.95616E-03  2944   0.130E-01 0.309E-04
CGA:   7    -0.118550536814E+04   -0.35775E-03   -0.35773E-03  2944   0.203E-02 0.293E-04
CGA:   8    -0.118550559358E+04   -0.22545E-03   -0.22489E-03  2944   0.114E-02 0.137E-04
CGA:   9    -0.118550569360E+04   -0.10002E-03   -0.99923E-04  2944   0.780E-03 0.604E-05
CGA:  10    -0.118550571767E+04   -0.24066E-04   -0.24131E-04  2944   0.328E-03 0.404E-06
CGA:  11    -0.118550574158E+04   -0.23911E-04   -0.23916E-04  2944   0.203E-03-0.197E-05
CGA:  12    -0.118550576292E+04   -0.21342E-04   -0.21418E-04  2944   0.159E-03-0.212E-05
CGA:  13    -0.118550577054E+04   -0.76207E-05   -0.75895E-05  2944   0.123E-03-0.128E-05
  17 F= -.11855058E+04 E0= -.11854861E+04  d E =-.220955E-02  mag=   118.0000
       N       E                     dE             d eps       ncg     rms          ort
SDA:   1    -0.118489181274E+04    0.61395E+00    0.00000E+00  2944   0.365E+01 0.000E+00
CGA:   2    -0.118499665517E+04   -0.10484E+00   -0.11328E+00  2944   0.259E+01-0.192E+00
CGA:   3    -0.118532832144E+04   -0.33167E+00   -0.33303E+00  2944   0.120E+01-0.196E-01
CGA:   4    -0.118540451406E+04   -0.76193E-01   -0.76778E-01  2944   0.834E+00 0.336E-01
CGA:   5    -0.118544868819E+04   -0.44174E-01   -0.43934E-01  2944   0.793E+00-0.235E-02
CGA:   6    -0.118548530443E+04   -0.36616E-01   -0.36667E-01  2944   0.199E+00 0.434E-03
CGA:   7    -0.118549808339E+04   -0.12779E-01   -0.12779E-01  2944   0.908E-01-0.160E-05
CGA:   8    -0.118550487652E+04   -0.67931E-02   -0.67900E-02  2944   0.122E+00 0.310E-03
CGA:   9    -0.118550910025E+04   -0.42237E-02   -0.42354E-02  2944   0.210E-01-0.200E-03
CGA:  10    -0.118551073459E+04   -0.16343E-02   -0.16309E-02  2944   0.111E-01 0.204E-03
CGA:  11    -0.118551148280E+04   -0.74822E-03   -0.74817E-03  2944   0.160E-01-0.228E-04
CGA:  12    -0.118551219115E+04   -0.70835E-03   -0.70926E-03  2944   0.471E-02-0.894E-05
CGA:  13    -0.118551260437E+04   -0.41322E-03   -0.41383E-03  2944   0.288E-02-0.228E-04
CGA:  14    -0.118551277050E+04   -0.16612E-03   -0.16616E-03  2944   0.307E-02 0.359E-06
CGA:  15    -0.118551292638E+04   -0.15588E-03   -0.15582E-03  2944   0.211E-02-0.145E-05
CGA:  16    -0.118551308938E+04   -0.16300E-03   -0.16295E-03  2944   0.968E-03 0.527E-05
CGA:  17    -0.118551316179E+04   -0.72408E-04   -0.72398E-04  2944   0.104E-02 0.140E-05
CGA:  18    -0.118551320362E+04   -0.41831E-04   -0.41904E-04  2944   0.681E-03 0.203E-05
CGA:  19    -0.118551328912E+04   -0.85499E-04   -0.85202E-04  2944   0.304E-03 0.496E-05
CGA:  20    -0.118551330732E+04   -0.18205E-04   -0.18203E-04  2944   0.399E-03-0.224E-06
CGA:  21    -0.118551332836E+04   -0.21039E-04   -0.21017E-04  2944   0.219E-03-0.148E-05
CGA:  22    -0.118551334685E+04   -0.18488E-04   -0.18503E-04  2944   0.142E-03-0.892E-06
CGA:  23    -0.118551335621E+04   -0.93627E-05   -0.93604E-05  2944   0.128E-03-0.125E-05
  18 F= -.11855134E+04 E0= -.11854936E+04  d E =-.758567E-02  mag=   118.0000
       N       E                     dE             d eps       ncg     rms          ort
SDA:   1    -0.118524782570E+04    0.26552E+00    0.00000E+00  2944   0.170E+01 0.000E+00
CGA:   2    -0.118529421314E+04   -0.46387E-01   -0.48460E-01  2944   0.101E+01-0.530E-01
CGA:   3    -0.118543227440E+04   -0.13806E+00   -0.13875E+00  2944   0.694E+00-0.935E-02
CGA:   4    -0.118547476712E+04   -0.42493E-01   -0.42811E-01  2944   0.284E+00 0.195E-01
CGA:   5    -0.118549045734E+04   -0.15690E-01   -0.15719E-01  2944   0.312E+00 0.317E-03
CGA:   6    -0.118550563161E+04   -0.15174E-01   -0.15208E-01  2944   0.136E+00 0.344E-03
CGA:   7    -0.118551280870E+04   -0.71771E-02   -0.72130E-02  2944   0.260E-01 0.632E-03
CGA:   8    -0.118551660320E+04   -0.37945E-02   -0.38043E-02  2944   0.284E-01-0.128E-03
CGA:   9    -0.118551733406E+04   -0.73085E-03   -0.72868E-03  2944   0.775E-02 0.472E-04
CGA:  10    -0.118551803608E+04   -0.70202E-03   -0.70126E-03  2944   0.364E-02 0.248E-04
CGA:  11    -0.118551843394E+04   -0.39786E-03   -0.39815E-03  2944   0.322E-02-0.717E-05
CGA:  12    -0.118551861829E+04   -0.18435E-03   -0.18438E-03  2944   0.282E-02 0.846E-06
CGA:  13    -0.118551872066E+04   -0.10237E-03   -0.10236E-03  2944   0.986E-03-0.538E-06
CGA:  14    -0.118551880875E+04   -0.88090E-04   -0.88061E-04  2944   0.868E-03 0.998E-06
CGA:  15    -0.118551890478E+04   -0.96032E-04   -0.95930E-04  2944   0.610E-03 0.254E-05
CGA:  16    -0.118551893355E+04   -0.28765E-04   -0.28796E-04  2944   0.589E-03 0.937E-06
CGA:  17    -0.118551896449E+04   -0.30939E-04   -0.30925E-04  2944   0.275E-03 0.657E-07
CGA:  18    -0.118551900494E+04   -0.40458E-04   -0.40297E-04  2944   0.217E-03 0.207E-05
CGA:  19    -0.118551901959E+04   -0.14650E-04   -0.14646E-04  2944   0.252E-03-0.630E-06
CGA:  20    -0.118551902881E+04   -0.92199E-05   -0.92107E-05  2944   0.920E-04-0.308E-06
CGA:  21    -0.118551904055E+04   -0.11738E-04   -0.11756E-04  2944   0.778E-04-0.332E-06
CGA:  22    -0.118551904609E+04   -0.55351E-05   -0.55338E-05  2944   0.565E-04-0.421E-06
  19 F= -.11855190E+04 E0= -.11854993E+04  d E =-.568987E-02  mag=   118.0000
       N       E                     dE             d eps       ncg     rms          ort
SDA:   1    -0.116811131093E+04    0.17408E+02    0.00000E+00  2944   0.628E+02 0.000E+00
CGA:   2    -0.117265729051E+04   -0.45460E+01   -0.45636E+01  2944   0.682E+02 0.148E+02
CGA:   3    -0.117876016327E+04   -0.61029E+01   -0.60408E+01  2944   0.875E+02-0.189E+02
CGA:   4    -0.118228892974E+04   -0.35288E+01   -0.35146E+01  2944   0.229E+02 0.317E+00
CGA:   5    -0.118291395027E+04   -0.62502E+00   -0.61922E+00  2944   0.220E+02-0.106E+01
CGA:   6    -0.118391569019E+04   -0.10017E+01   -0.99827E+00  2944   0.310E+02-0.431E+00
CGA:   7    -0.118450196728E+04   -0.58628E+00   -0.66185E+00  2944   0.151E+02-0.393E+01
CGA:   8    -0.118494582258E+04   -0.44386E+00   -0.41469E+00  2944   0.474E+01 0.344E+00
CGA:   9    -0.118503083093E+04   -0.85008E-01   -0.96403E-01  2944   0.361E+01-0.516E+00
CGA:  10    -0.118521196154E+04   -0.18113E+00   -0.18077E+00  2944   0.442E+01-0.236E-01
CGA:  11    -0.118531211126E+04   -0.10015E+00   -0.10670E+00  2944   0.245E+01-0.203E+00
CGA:  12    -0.118539752922E+04   -0.85418E-01   -0.87998E-01  2944   0.104E+01-0.123E-01
CGA:  13    -0.118541908155E+04   -0.21552E-01   -0.22064E-01  2944   0.598E+00-0.202E-01
CGA:  14    -0.118546550667E+04   -0.46425E-01   -0.45585E-01  2944   0.602E+00 0.308E-01
CGA:  15    -0.118548355290E+04   -0.18046E-01   -0.18335E-01  2944   0.488E+00-0.526E-02
CGA:  16    -0.118551183754E+04   -0.28285E-01   -0.28223E-01  2944   0.220E+00 0.225E-01
CGA:  17    -0.118551980722E+04   -0.79697E-02   -0.80401E-02  2944   0.204E+00-0.290E-03
CGA:  18    -0.118552826969E+04   -0.84625E-02   -0.84689E-02  2944   0.855E-01 0.770E-04
CGA:  19    -0.118553399838E+04   -0.57287E-02   -0.57004E-02  2944   0.150E+00 0.166E-02
CGA:  20    -0.118553924459E+04   -0.52462E-02   -0.53237E-02  2944   0.487E-01-0.230E-03
CGA:  21    -0.118554322842E+04   -0.39838E-02   -0.39750E-02  2944   0.279E-01 0.271E-03
CGA:  22    -0.118554441243E+04   -0.11840E-02   -0.11873E-02  2944   0.307E-01 0.541E-04
CGA:  23    -0.118554612637E+04   -0.17139E-02   -0.17140E-02  2944   0.131E-01-0.984E-05
CGA:  24    -0.118554741371E+04   -0.12873E-02   -0.12854E-02  2944   0.169E-01 0.415E-04
CGA:  25    -0.118554812448E+04   -0.71076E-03   -0.71269E-03  2944   0.128E-01 0.230E-04
CGA:  26    -0.118554868930E+04   -0.56483E-03   -0.56578E-03  2944   0.466E-02 0.234E-04
CGA:  27    -0.118554936922E+04   -0.67992E-03   -0.68112E-03  2944   0.706E-02-0.153E-04
CGA:  28    -0.118554964302E+04   -0.27381E-03   -0.27415E-03  2944   0.585E-02-0.151E-07
CGA:  29    -0.118554999585E+04   -0.35282E-03   -0.35280E-03  2944   0.292E-02 0.150E-04
CGA:  30    -0.118555038302E+04   -0.38717E-03   -0.38690E-03  2944   0.372E-02 0.331E-05
CGA:  31    -0.118555049688E+04   -0.11387E-03   -0.11401E-03  2944   0.220E-02 0.309E-05
SDA:  32    -0.118555075537E+04   -0.25849E-03   -0.25712E-03  2944   0.150E-02 0.243E-04
CGA:  33    -0.118555084969E+04   -0.94323E-04   -0.94329E-04  2944   0.118E-02 0.345E-06
CGA:  34    -0.118555090240E+04   -0.52710E-04   -0.52642E-04  2944   0.119E-02-0.274E-05
CGA:  35    -0.118555100174E+04   -0.99334E-04   -0.99453E-04  2944   0.500E-03-0.580E-05
CGA:  36    -0.118555105436E+04   -0.52620E-04   -0.52822E-04  2944   0.324E-03-0.482E-05
CGA:  37    -0.118555107418E+04   -0.19825E-04   -0.19823E-04  2944   0.362E-03-0.553E-06
CGA:  38    -0.118555108985E+04   -0.15667E-04   -0.15658E-04  2944   0.246E-03-0.235E-06
CGA:  39    -0.118555110896E+04   -0.19112E-04   -0.19138E-04  2944   0.128E-03-0.194E-05
CGA:  40    -0.118555112633E+04   -0.17368E-04   -0.17525E-04  2944   0.174E-03-0.217E-05
CGA:  41    -0.118555113800E+04   -0.11667E-04   -0.11667E-04  2944   0.235E-03-0.122E-05
CGA:  42    -0.118555114609E+04   -0.80938E-05   -0.80625E-05  2944   0.467E-04-0.106E-05
  20 F= -.11855511E+04 E0= -.11855310E+04  d E =-.321000E-01  mag=   118.0000
       N       E                     dE             d eps       ncg     rms          ort
SDA:   1    -0.117492467822E+04    0.10626E+02    0.00000E+00  2944   0.262E+02 0.000E+00
CGA:   2    -0.118005154702E+04   -0.51269E+01   -0.61120E+01  2944   0.850E+02-0.656E+01
CGA:   3    -0.118203433111E+04   -0.19828E+01   -0.20072E+01  2944   0.290E+02-0.322E+01
CGA:   4    -0.118327309131E+04   -0.12388E+01   -0.13221E+01  2944   0.999E+01-0.123E+01
CGA:   5    -0.118420349505E+04   -0.93040E+00   -0.94502E+00  2944   0.749E+01-0.451E+00
CGA:   6    -0.118459042825E+04   -0.38693E+00   -0.39605E+00  2944   0.235E+01 0.458E-01
CGA:   7    -0.118470915665E+04   -0.11873E+00   -0.11708E+00  2944   0.268E+01-0.335E-02
CGA:   8    -0.118486172255E+04   -0.15257E+00   -0.15198E+00  2944   0.968E+00-0.645E-02
CGA:   9    -0.118492584283E+04   -0.64120E-01   -0.64426E-01  2944   0.332E+00 0.182E-01
CGA:  10    -0.118494898343E+04   -0.23141E-01   -0.23117E-01  2944   0.366E+00-0.192E-02
CGA:  11    -0.118496408584E+04   -0.15102E-01   -0.15029E-01  2944   0.208E+00 0.533E-03
CGA:  12    -0.118498325536E+04   -0.19170E-01   -0.19140E-01  2944   0.814E-01 0.100E-02
CGA:  13    -0.118499042589E+04   -0.71705E-02   -0.71761E-02  2944   0.459E-01-0.251E-03
CGA:  14    -0.118499516306E+04   -0.47372E-02   -0.47521E-02  2944   0.389E-01-0.386E-03
CGA:  15    -0.118499867684E+04   -0.35138E-02   -0.35071E-02  2944   0.150E-01 0.288E-03
CGA:  16    -0.118500006777E+04   -0.13909E-02   -0.13872E-02  2944   0.100E-01 0.158E-03
CGA:  17    -0.118500118711E+04   -0.11193E-02   -0.11176E-02  2944   0.172E-01 0.416E-04
CGA:  18    -0.118500174289E+04   -0.55577E-03   -0.55494E-03  2944   0.529E-02 0.196E-04
CGA:  19    -0.118500225220E+04   -0.50931E-03   -0.50831E-03  2944   0.201E-02 0.364E-04
CGA:  20    -0.118500255807E+04   -0.30587E-03   -0.30524E-03  2944   0.270E-02 0.831E-05
CGA:  21    -0.118500278136E+04   -0.22329E-03   -0.22328E-03  2944   0.240E-02 0.347E-05
CGA:  22    -0.118500286232E+04   -0.80964E-04   -0.81397E-04  2944   0.111E-02-0.568E-05
CGA:  23    -0.118500295523E+04   -0.92905E-04   -0.92930E-04  2944   0.945E-03-0.295E-05
CGA:  24    -0.118500305752E+04   -0.10229E-03   -0.10224E-03  2944   0.768E-03 0.148E-05
CGA:  25    -0.118500313855E+04   -0.81027E-04   -0.81037E-04  2944   0.358E-03-0.543E-06
CGA:  26    -0.118500316293E+04   -0.24388E-04   -0.24379E-04  2944   0.651E-03-0.669E-06
CGA:  27    -0.118500320055E+04   -0.37619E-04   -0.37615E-04  2944   0.328E-03-0.248E-06
CGA:  28    -0.118500323394E+04   -0.33388E-04   -0.33380E-04  2944   0.160E-03 0.172E-06
CGA:  29    -0.118500324893E+04   -0.14992E-04   -0.15009E-04  2944   0.118E-03-0.131E-05
CGA:  30    -0.118500325668E+04   -0.77442E-05   -0.77364E-05  2944   0.201E-03-0.596E-06
CGA:  31    -0.118500326831E+04   -0.11633E-04   -0.11605E-04  2944   0.764E-04-0.126E-05
SDA:  32    -0.118500327247E+04   -0.41603E-05   -0.41427E-05  2944   0.288E-04-0.647E-06
  21 F= -.11850033E+04 E0= -.11849840E+04  d E =0.547874E+00  mag=   118.0000
       N       E                     dE             d eps       ncg     rms          ort
SDA:   1    -0.118430550130E+04    0.69777E+00    0.00000E+00  2944   0.296E+01 0.000E+00
CGA:   2    -0.118459462343E+04   -0.28912E+00   -0.28782E+00  2944   0.900E+01 0.563E-01
CGA:   3    -0.118510423897E+04   -0.50962E+00   -0.50925E+00  2944   0.301E+01-0.396E-01
CGA:   4    -0.118524137083E+04   -0.13713E+00   -0.14090E+00  2944   0.794E+00-0.442E-01
CGA:   5    -0.118529205457E+04   -0.50684E-01   -0.50433E-01  2944   0.851E+00-0.571E-02
CGA:   6    -0.118532831428E+04   -0.36260E-01   -0.36218E-01  2944   0.423E+00 0.181E-03
CGA:   7    -0.118536258150E+04   -0.34267E-01   -0.34266E-01  2944   0.150E+00 0.140E-03
CGA:   8    -0.118536944072E+04   -0.68592E-02   -0.68595E-02  2944   0.117E+00-0.639E-04
CGA:   9    -0.118537481541E+04   -0.53747E-02   -0.54077E-02  2944   0.399E-01-0.999E-04
CGA:  10    -0.118537915498E+04   -0.43396E-02   -0.43250E-02  2944   0.403E-01 0.340E-03
CGA:  11    -0.118538066965E+04   -0.15147E-02   -0.15241E-02  2944   0.194E-01-0.118E-03
CGA:  12    -0.118538172187E+04   -0.10522E-02   -0.10525E-02  2944   0.123E-01 0.114E-05
CGA:  13    -0.118538280932E+04   -0.10874E-02   -0.10873E-02  2944   0.102E-01 0.995E-05
CGA:  14    -0.118538334171E+04   -0.53239E-03   -0.53192E-03  2944   0.921E-02-0.712E-06
CGA:  15    -0.118538376247E+04   -0.42076E-03   -0.42069E-03  2944   0.238E-02 0.162E-05
CGA:  16    -0.118538401113E+04   -0.24866E-03   -0.24904E-03  2944   0.328E-02-0.101E-04
CGA:  17    -0.118538414594E+04   -0.13481E-03   -0.13489E-03  2944   0.205E-02-0.207E-05
CGA:  18    -0.118538428779E+04   -0.14186E-03   -0.14185E-03  2944   0.951E-03-0.500E-05
CGA:  19    -0.118538435127E+04   -0.63476E-04   -0.63477E-04  2944   0.764E-03-0.163E-06
CGA:  20    -0.118538437988E+04   -0.28610E-04   -0.28562E-04  2944   0.350E-03 0.428E-06
CGA:  21    -0.118538441130E+04   -0.31419E-04   -0.31364E-04  2944   0.319E-03 0.233E-05
CGA:  22    -0.118538443080E+04   -0.19500E-04   -0.19506E-04  2944   0.219E-03 0.570E-06
CGA:  23    -0.118538443956E+04   -0.87546E-05   -0.87745E-05  2944   0.119E-03 0.646E-06
  22 F= -.11853844E+04 E0= -.11853648E+04  d E =-.381167E+00  mag=   118.0000
       N       E                     dE             d eps       ncg     rms          ort
SDA:   1    -0.118513925326E+04    0.24518E+00    0.00000E+00  2944   0.142E+01 0.000E+00
CGA:   2    -0.118519508292E+04   -0.55830E-01   -0.55516E-01  2944   0.162E+01-0.244E-03
CGA:   3    -0.118541280082E+04   -0.21772E+00   -0.21841E+00  2944   0.786E+00-0.989E-02
CGA:   4    -0.118545922968E+04   -0.46429E-01   -0.46299E-01  2944   0.254E+00-0.417E-02
CGA:   5    -0.118547259078E+04   -0.13361E-01   -0.13359E-01  2944   0.263E+00-0.531E-04
CGA:   6    -0.118548590973E+04   -0.13319E-01   -0.13388E-01  2944   0.148E+00 0.601E-03
CGA:   7    -0.118549591218E+04   -0.10002E-01   -0.10002E-01  2944   0.447E-01-0.158E-02
CGA:   8    -0.118549872456E+04   -0.28124E-02   -0.28115E-02  2944   0.396E-01-0.960E-04
CGA:   9    -0.118550005581E+04   -0.13313E-02   -0.13347E-02  2944   0.132E-01-0.496E-04
CGA:  10    -0.118550167813E+04   -0.16223E-02   -0.16243E-02  2944   0.764E-02-0.342E-04
CGA:  11    -0.118550204134E+04   -0.36321E-03   -0.36413E-03  2944   0.738E-02 0.339E-05
CGA:  12    -0.118550243958E+04   -0.39824E-03   -0.39816E-03  2944   0.364E-02-0.975E-06
CGA:  13    -0.118550275752E+04   -0.31794E-03   -0.31785E-03  2944   0.269E-02 0.438E-05
CGA:  14    -0.118550291116E+04   -0.15364E-03   -0.15362E-03  2944   0.273E-02-0.599E-06
CGA:  15    -0.118550302855E+04   -0.11739E-03   -0.11736E-03  2944   0.940E-03 0.859E-06
CGA:  16    -0.118550310103E+04   -0.72484E-04   -0.72487E-04  2944   0.692E-03-0.265E-06
CGA:  17    -0.118550315423E+04   -0.53203E-04   -0.53210E-04  2944   0.874E-03-0.104E-05
CGA:  18    -0.118550318807E+04   -0.33834E-04   -0.33802E-04  2944   0.364E-03-0.136E-05
CGA:  19    -0.118550321811E+04   -0.30045E-04   -0.30025E-04  2944   0.116E-03 0.925E-06
CGA:  20    -0.118550322540E+04   -0.72821E-05   -0.72820E-05  2944   0.196E-03-0.104E-06
CGA:  21    -0.118550323786E+04   -0.12469E-04   -0.12470E-04  2944   0.746E-04 0.222E-06
CGA:  22    -0.118550324468E+04   -0.68188E-05   -0.68129E-05  2944   0.531E-04 0.162E-06
  23 F= -.11855032E+04 E0= -.11854834E+04  d E =-.118805E+00  mag=   118.0000
       N       E                     dE             d eps       ncg     rms          ort
SDA:   1    -0.118256029917E+04    0.29429E+01    0.00000E+00  2944   0.711E+02 0.000E+00
CGA:   2    -0.118509187335E+04   -0.25316E+01   -0.17512E+01  2944   0.348E+01-0.169E+02
CGA:   3    -0.118521547035E+04   -0.12360E+00   -0.12620E+00  2944   0.169E+01 0.217E-01
CGA:   4    -0.118532385671E+04   -0.10839E+00   -0.10839E+00  2944   0.204E+01-0.148E-02
CGA:   5    -0.118545586831E+04   -0.13201E+00   -0.13198E+00  2944   0.970E+00 0.901E-02
CGA:   6    -0.118549242465E+04   -0.36556E-01   -0.36275E-01  2944   0.391E+00 0.118E-02
CGA:   7    -0.118551882666E+04   -0.26402E-01   -0.26362E-01  2944   0.324E+00 0.466E-02
CGA:   8    -0.118553344434E+04   -0.14618E-01   -0.14612E-01  2944   0.150E+00-0.103E-03
CGA:   9    -0.118554171391E+04   -0.82696E-02   -0.82790E-02  2944   0.882E-01 0.583E-03
CGA:  10    -0.118554556405E+04   -0.38501E-02   -0.38381E-02  2944   0.394E-01-0.603E-04
CGA:  11    -0.118554800278E+04   -0.24387E-02   -0.24388E-02  2944   0.354E-01-0.155E-04
CGA:  12    -0.118554984865E+04   -0.18459E-02   -0.18450E-02  2944   0.169E-01-0.346E-04
CGA:  13    -0.118555061995E+04   -0.77130E-03   -0.77161E-03  2944   0.867E-02 0.596E-05
CGA:  14    -0.118555110215E+04   -0.48220E-03   -0.48214E-03  2944   0.626E-02-0.800E-05
CGA:  15    -0.118555149163E+04   -0.38949E-03   -0.38946E-03  2944   0.584E-02 0.480E-05
CGA:  16    -0.118555183652E+04   -0.34489E-03   -0.34489E-03  2944   0.355E-02-0.252E-06
CGA:  17    -0.118555199782E+04   -0.16129E-03   -0.16140E-03  2944   0.189E-02 0.269E-05
CGA:  18    -0.118555211725E+04   -0.11943E-03   -0.11944E-03  2944   0.167E-02-0.811E-06
CGA:  19    -0.118555221126E+04   -0.94011E-04   -0.94015E-04  2944   0.123E-02 0.169E-05
CGA:  20    -0.118555228551E+04   -0.74243E-04   -0.74243E-04  2944   0.854E-03 0.257E-06
CGA:  21    -0.118555232424E+04   -0.38737E-04   -0.38761E-04  2944   0.411E-03 0.125E-05
CGA:  22    -0.118555234980E+04   -0.25555E-04   -0.25552E-04  2944   0.376E-03 0.499E-06
CGA:  23    -0.118555237089E+04   -0.21096E-04   -0.21099E-04  2944   0.254E-03 0.125E-05
CGA:  24    -0.118555238590E+04   -0.15001E-04   -0.15001E-04  2944   0.181E-03 0.398E-06
CGA:  25    -0.118555239407E+04   -0.81785E-05   -0.81873E-05  2944   0.806E-04 0.614E-06
  24 F= -.11855524E+04 E0= -.11855323E+04  d E =-.491494E-01  mag=   118.0000
       N       E                     dE             d eps       ncg     rms          ort
SDA:   1    -0.118552412492E+04    0.28261E-01    0.00000E+00  2944   0.336E+00 0.000E+00
CGA:   2    -0.118553111903E+04   -0.69941E-02   -0.69651E-02  2944   0.782E-01 0.720E-03
CGA:   3    -0.118554683445E+04   -0.15715E-01   -0.15697E-01  2944   0.698E-01 0.159E-03
CGA:   4    -0.118555169226E+04   -0.48578E-02   -0.48539E-02  2944   0.205E-01 0.370E-03
CGA:   5    -0.118555285914E+04   -0.11669E-02   -0.11668E-02  2944   0.312E-01-0.279E-05
CGA:   6    -0.118555452655E+04   -0.16674E-02   -0.16685E-02  2944   0.760E-02 0.416E-04
CGA:   7    -0.118555500580E+04   -0.47924E-03   -0.47924E-03  2944   0.355E-02 0.538E-05
CGA:   8    -0.118555536346E+04   -0.35767E-03   -0.35774E-03  2944   0.142E-02-0.135E-05
CGA:   9    -0.118555548011E+04   -0.11665E-03   -0.11662E-03  2944   0.114E-02 0.230E-05
CGA:  10    -0.118555551634E+04   -0.36223E-04   -0.36227E-04  2944   0.553E-03 0.107E-05
CGA:  11    -0.118555555638E+04   -0.40040E-04   -0.40024E-04  2944   0.293E-03 0.152E-05
CGA:  12    -0.118555559254E+04   -0.36159E-04   -0.36112E-04  2944   0.154E-03 0.807E-06
CGA:  13    -0.118555560717E+04   -0.14636E-04   -0.14649E-04  2944   0.906E-04-0.470E-06
CGA:  14    -0.118555561497E+04   -0.77943E-05   -0.77955E-05  2944   0.117E-03-0.102E-06
  25 F= -.11855556E+04 E0= -.11855355E+04  d E =-.322089E-02  mag=   118.0000
       N       E                     dE             d eps       ncg     rms          ort
SDA:   1    -0.118547522570E+04    0.80381E-01    0.00000E+00  2944   0.339E+00 0.000E+00
CGA:   2    -0.118549107503E+04   -0.15849E-01   -0.15849E-01  2944   0.448E+00-0.120E-03
CGA:   3    -0.118552602543E+04   -0.34950E-01   -0.35005E-01  2944   0.337E+00-0.315E-02
CGA:   4    -0.118554333045E+04   -0.17305E-01   -0.17302E-01  2944   0.682E-01-0.133E-03
CGA:   5    -0.118555122697E+04   -0.78965E-02   -0.78822E-02  2944   0.873E-01 0.271E-03
CGA:   6    -0.118555387954E+04   -0.26526E-02   -0.26453E-02  2944   0.331E-01 0.147E-03
CGA:   7    -0.118555610215E+04   -0.22226E-02   -0.22227E-02  2944   0.989E-02 0.115E-03
CGA:   8    -0.118555726474E+04   -0.11626E-02   -0.11620E-02  2944   0.665E-02 0.121E-04
CGA:   9    -0.118555750026E+04   -0.23552E-03   -0.23565E-03  2944   0.430E-02 0.326E-05
CGA:  10    -0.118555774646E+04   -0.24620E-03   -0.24597E-03  2944   0.130E-02-0.399E-05
CGA:  11    -0.118555788251E+04   -0.13605E-03   -0.13574E-03  2944   0.965E-03 0.778E-05
CGA:  12    -0.118555793667E+04   -0.54154E-04   -0.54157E-04  2944   0.121E-02 0.270E-06
CGA:  13    -0.118555799504E+04   -0.58376E-04   -0.58422E-04  2944   0.363E-03 0.652E-06
CGA:  14    -0.118555802776E+04   -0.32716E-04   -0.32717E-04  2944   0.217E-03-0.110E-06
CGA:  15    -0.118555804762E+04   -0.19864E-04   -0.19900E-04  2944   0.408E-03-0.163E-05
CGA:  16    -0.118555806312E+04   -0.15502E-04   -0.15456E-04  2944   0.135E-03-0.136E-05
CGA:  17    -0.118555807218E+04   -0.90560E-05   -0.90567E-05  2944   0.808E-04 0.645E-06
  26 F= -.11855581E+04 E0= -.11855380E+04  d E =-.245721E-02  mag=   118.0000
       N       E                     dE             d eps       ncg     rms          ort
SDA:   1    -0.118554951700E+04    0.85461E-02    0.00000E+00  2944   0.700E-01 0.000E+00
CGA:   2    -0.118555129004E+04   -0.17730E-02   -0.17672E-02  2944   0.301E-01 0.144E-03
CGA:   3    -0.118555448382E+04   -0.31938E-02   -0.31826E-02  2944   0.259E-01 0.252E-03
CGA:   4    -0.118555673389E+04   -0.22501E-02   -0.22482E-02  2944   0.105E-01 0.776E-04
CGA:   5    -0.118555738143E+04   -0.64753E-03   -0.64728E-03  2944   0.696E-02-0.126E-04
CGA:   6    -0.118555767319E+04   -0.29176E-03   -0.29192E-03  2944   0.571E-02 0.548E-06
CGA:   7    -0.118555800011E+04   -0.32692E-03   -0.32696E-03  2944   0.146E-02 0.358E-05
CGA:   8    -0.118555812737E+04   -0.12725E-03   -0.12720E-03  2944   0.431E-03 0.243E-05
CGA:   9    -0.118555818369E+04   -0.56319E-04   -0.56119E-04  2944   0.260E-03 0.328E-05
CGA:  10    -0.118555820491E+04   -0.21223E-04   -0.21217E-04  2944   0.120E-03 0.711E-06
CGA:  11    -0.118555821202E+04   -0.71090E-05   -0.71148E-05  2944   0.140E-03 0.475E-06
  27 F= -.11855582E+04 E0= -.11855381E+04  d E =-.139840E-03  mag=   118.0000
       N       E                     dE             d eps       ncg     rms          ort
SDA:   1    -0.118487847023E+04    0.67973E+00    0.00000E+00  2944   0.418E+01 0.000E+00
CGA:   2    -0.118499455870E+04   -0.11609E+00   -0.11690E+00  2944   0.245E+01-0.867E-01
CGA:   3    -0.118533352099E+04   -0.33896E+00   -0.33945E+00  2944   0.185E+01-0.600E-02
CGA:   4    -0.118543558706E+04   -0.10207E+00   -0.10046E+00  2944   0.583E+00-0.187E-01
CGA:   5    -0.118551569609E+04   -0.80109E-01   -0.79721E-01  2944   0.252E+00 0.583E-02
CGA:   6    -0.118553391249E+04   -0.18216E-01   -0.18214E-01  2944   0.115E+00-0.333E-03
CGA:   7    -0.118554085262E+04   -0.69401E-02   -0.69124E-02  2944   0.147E+00-0.516E-03
CGA:   8    -0.118554648507E+04   -0.56324E-02   -0.56868E-02  2944   0.339E-01-0.608E-03
CGA:   9    -0.118554919709E+04   -0.27120E-02   -0.27090E-02  2944   0.108E-01 0.220E-03
CGA:  10    -0.118555041461E+04   -0.12175E-02   -0.12143E-02  2944   0.915E-02 0.720E-04
CGA:  11    -0.118555110109E+04   -0.68647E-03   -0.68648E-03  2944   0.753E-02-0.122E-04
CGA:  12    -0.118555136963E+04   -0.26855E-03   -0.26779E-03  2944   0.414E-02 0.132E-04
CGA:  13    -0.118555160337E+04   -0.23373E-03   -0.23369E-03  2944   0.181E-02 0.106E-05
CGA:  14    -0.118555190254E+04   -0.29917E-03   -0.29940E-03  2944   0.120E-02-0.229E-05
CGA:  15    -0.118555200501E+04   -0.10247E-03   -0.10248E-03  2944   0.791E-03-0.421E-06
CGA:  16    -0.118555205176E+04   -0.46750E-04   -0.46773E-04  2944   0.128E-02 0.750E-06
CGA:  17    -0.118555212834E+04   -0.76582E-04   -0.76617E-04  2944   0.511E-03 0.108E-05
CGA:  18    -0.118555216859E+04   -0.40249E-04   -0.40239E-04  2944   0.295E-03 0.287E-05
CGA:  19    -0.118555219782E+04   -0.29227E-04   -0.29202E-04  2944   0.167E-03 0.110E-05
CGA:  20    -0.118555222000E+04   -0.22174E-04   -0.22080E-04  2944   0.175E-03 0.167E-05
CGA:  21    -0.118555222813E+04   -0.81377E-05   -0.81356E-05  2944   0.152E-03-0.638E-07
  28 F= -.11855522E+04 E0= -.11855320E+04  d E =0.598388E-02  mag=   118.0000
       N       E                     dE             d eps       ncg     rms          ort
SDA:   1    -0.118391857934E+04    0.16336E+01    0.00000E+00  2944   0.572E+02 0.000E+00
CGA:   2    -0.118518657438E+04   -0.12680E+01   -0.14869E+01  2944   0.152E+02-0.352E+02
CGA:   3    -0.118543751696E+04   -0.25094E+00   -0.31353E+00  2944   0.121E+01-0.343E+01
CGA:   4    -0.118546903658E+04   -0.31520E-01   -0.31368E-01  2944   0.325E+00-0.119E-03
CGA:   5    -0.118550022869E+04   -0.31192E-01   -0.31111E-01  2944   0.623E+00 0.241E-02
CGA:   6    -0.118552889762E+04   -0.28669E-01   -0.28671E-01  2944   0.168E+00-0.333E-03
CGA:   7    -0.118553771621E+04   -0.88186E-02   -0.88280E-02  2944   0.151E+00 0.810E-04
CGA:   8    -0.118554647264E+04   -0.87564E-02   -0.87435E-02  2944   0.766E-01-0.405E-03
CGA:   9    -0.118555021558E+04   -0.37429E-02   -0.37457E-02  2944   0.455E-01 0.157E-04
CGA:  10    -0.118555222319E+04   -0.20076E-02   -0.20060E-02  2944   0.152E-01-0.100E-05
CGA:  11    -0.118555302774E+04   -0.80455E-03   -0.80511E-03  2944   0.123E-01 0.148E-04
CGA:  12    -0.118555372254E+04   -0.69480E-03   -0.69478E-03  2944   0.683E-02 0.152E-05
CGA:  13    -0.118555407300E+04   -0.35046E-03   -0.35072E-03  2944   0.436E-02 0.711E-05
CGA:  14    -0.118555427716E+04   -0.20416E-03   -0.20402E-03  2944   0.176E-02-0.135E-05
CGA:  15    -0.118555437336E+04   -0.96200E-04   -0.96201E-04  2944   0.157E-02 0.283E-06
CGA:  16    -0.118555447556E+04   -0.10220E-03   -0.10221E-03  2944   0.116E-02-0.224E-05
CGA:  17    -0.118555453528E+04   -0.59727E-04   -0.59733E-04  2944   0.744E-03 0.469E-06
CGA:  18    -0.118555457384E+04   -0.38557E-04   -0.38553E-04  2944   0.410E-03-0.373E-06
CGA:  19    -0.118555459753E+04   -0.23685E-04   -0.23687E-04  2944   0.368E-03 0.363E-06
CGA:  20    -0.118555462090E+04   -0.23375E-04   -0.23374E-04  2944   0.293E-03 0.265E-06
CGA:  21    -0.118555463742E+04   -0.16524E-04   -0.16529E-04  2944   0.207E-03 0.120E-05
CGA:  22    -0.118555464766E+04   -0.10238E-04   -0.10245E-04  2944   0.104E-03 0.578E-06
CGA:  23    -0.118555465360E+04   -0.59398E-05   -0.59418E-05  2944   0.907E-04 0.461E-06
  29 F= -.11855547E+04 E0= -.11855345E+04  d E =-.242547E-02  mag=   118.0000
       N       E                     dE             d eps       ncg     rms          ort
SDA:   1    -0.118552470503E+04    0.29943E-01    0.00000E+00  2944   0.684E+00 0.000E+00
CGA:   2    -0.118553698421E+04   -0.12279E-01   -0.12434E-01  2944   0.585E-01-0.828E-02
CGA:   3    -0.118554583867E+04   -0.88545E-02   -0.88256E-02  2944   0.716E-01 0.345E-03
CGA:   4    -0.118555024569E+04   -0.44070E-02   -0.44067E-02  2944   0.409E-01-0.720E-04
CGA:   5    -0.118555186243E+04   -0.16167E-02   -0.16179E-02  2944   0.289E-01-0.649E-05
CGA:   6    -0.118555359648E+04   -0.17340E-02   -0.17340E-02  2944   0.117E-01-0.316E-04
CGA:   7    -0.118555456185E+04   -0.96537E-03   -0.96457E-03  2944   0.381E-02 0.288E-04
CGA:   8    -0.118555470721E+04   -0.14536E-03   -0.14530E-03  2944   0.320E-02 0.603E-06
CGA:   9    -0.118555494280E+04   -0.23560E-03   -0.23546E-03  2944   0.130E-02 0.875E-05
CGA:  10    -0.118555503915E+04   -0.96347E-04   -0.96368E-04  2944   0.646E-03-0.427E-06
CGA:  11    -0.118555506424E+04   -0.25088E-04   -0.25103E-04  2944   0.438E-03 0.218E-06
CGA:  12    -0.118555508927E+04   -0.25033E-04   -0.25028E-04  2944   0.250E-03-0.794E-06
CGA:  13    -0.118555511267E+04   -0.23400E-04   -0.23364E-04  2944   0.169E-03 0.114E-05
CGA:  14    -0.118555512127E+04   -0.85973E-05   -0.85970E-05  2944   0.148E-03-0.523E-07
  30 F= -.11855551E+04 E0= -.11855350E+04  d E =-.467666E-03  mag=   118.0000
