 vasp.6.1.2 22Jul20 (build Nov 12 2024 08:16:06) complex                        
  
 POSCAR found type information on POSCAR CaMnP O 
 04/POSCAR found :  4 types and     155 ions
 scaLAPACK will be used
 -----------------------------------------------------------------------------
|                                                                             |
|               ----> ADVICE to this user running VASP <----                  |
|                                                                             |
|     You have a (more or less) 'large supercell' and for larger cells it     |
|     might be more efficient to use real-space projection operators.         |
|     Therefore, try LREAL= Auto in the INCAR file.                           |
|     Mind: For very accurate calculation, you might also keep the            |
|     reciprocal projection scheme (i.e. LREAL=.FALSE.).                      |
|                                                                             |
 -----------------------------------------------------------------------------

 LDA part: xc-table for Pade appr. of Perdew
 POSCAR found type information on POSCAR CaMnP O 
 00/POSCAR found :  4 types and     155 ions
 POSCAR found type information on POSCAR CaMnP O 
 06/POSCAR found :  4 types and     155 ions
 Jacobian:    28.7777120473155     
 POSCAR found type information on POSCAR CaMnP O 
 00/POSCAR found :  4 types and     155 ions
 POSCAR found type information on POSCAR CaMnP O 
 06/POSCAR found :  4 types and     155 ions
 generate k-points for:    2    2    1
 POSCAR, INCAR and KPOINTS ok, starting setup
 FFT: planning ...
 WAVECAR not read
 entering main loop
       N       E                     dE             d eps       ncg     rms          ort
DAV:   1     0.136677248103E+05    0.13668E+05   -0.62463E+05  2944   0.167E+03
DAV:   2     0.496697914060E+03   -0.13171E+05   -0.12174E+05  2944   0.464E+02
DAV:   3    -0.126622736534E+04   -0.17629E+04   -0.17289E+04  2944   0.182E+02
DAV:   4    -0.134488971128E+04   -0.78662E+02   -0.77597E+02  2944   0.383E+01
DAV:   5    -0.134938294354E+04   -0.44932E+01   -0.44693E+01  2944   0.694E+00
 gam= 0.000 g(H,U,f)=  0.170E+04 0.297E+03 0.112E+03 ort(H,U,f) = 0.000E+00 0.000E+00 0.000E+00
SDA:   6    -0.852170358052E+03    0.49721E+03   -0.44693E+01  2944   0.211E+04 0.000E+00
 gam= 0.000 trial= 0.400  step= 0.272 mean= 0.400
 gam= 0.216 g(H,U,f)=  0.202E+03 0.181E+03 0.730E+02 ort(H,U,f) = 0.204E+02 0.576E+02-0.937E+01
CGA:   7    -0.111944803918E+04   -0.26728E+03   -0.28712E+03  2944   0.456E+03 0.686E+02
 gam= 0.216 trial= 0.394  step= 0.210 mean= 0.394
 gam= 0.513 g(H,U,f)=  0.105E+03 0.930E+02 0.356E+02 ort(H,U,f) =-0.133E+02 0.123E+01-0.103E+02
CGA:   8    -0.114295525197E+04   -0.23507E+02   -0.49326E+02  2944   0.234E+03-0.224E+02
 gam= 0.513 trial= 0.384  step= 0.145 mean= 0.384
 gam= 0.000 g(H,U,f)=  0.848E+02 0.275E+03 0.133E+03 ort(H,U,f) =-0.159E+02-0.147E+03-0.889E+02
CGA:   9    -0.115338628799E+04   -0.10431E+02   -0.16108E+02  2944   0.493E+03-0.252E+03
 gam= 0.000 trial= 0.372  step= 0.178 mean= 0.372
 gam= 0.527 g(H,U,f)=  0.542E+02 0.104E+03 0.101E+03 ort(H,U,f) =-0.692E+01-0.233E+02 0.152E+02
CGA:  10    -0.115876891061E+04   -0.53826E+01   -0.43878E+02  2944   0.259E+03-0.150E+02
 gam= 0.527 trial= 0.363  step= 0.182 mean= 0.363
 gam= 0.396 g(H,U,f)=  0.361E+02 0.539E+02 0.129E+02 ort(H,U,f) =-0.194E+02-0.867E+01-0.201E+01
CGA:  11    -0.116615987515E+04   -0.73910E+01   -0.22863E+02  2944   0.103E+03-0.300E+02
 gam= 0.396 trial= 0.354  step= 0.146 mean= 0.354
 gam= 0.000 g(H,U,f)=  0.265E+02 0.838E+02 0.696E+02 ort(H,U,f) =-0.219E+01-0.178E+02-0.432E+02
CGA:  12    -0.117139915928E+04   -0.52393E+01   -0.66366E+01  2944   0.180E+03-0.632E+02
 gam= 0.000 trial= 0.343  step= 0.163 mean= 0.343
 gam= 0.175 g(H,U,f)=  0.104E+02 0.190E+02 0.199E+01 ort(H,U,f) =-0.953E+01-0.232E+01-0.149E+01
CGA:  13    -0.117602515661E+04   -0.46260E+01   -0.14687E+02  2944   0.314E+02-0.133E+02
 gam= 0.175 trial= 0.334  step= 0.079 mean= 0.334
 gam= 0.000 g(H,U,f)=  0.597E+01 0.121E+02 0.642E+01 ort(H,U,f) = 0.525E+01 0.119E+02 0.182E+01
CGA:  14    -0.117806731415E+04   -0.20422E+01   -0.11484E+01  2944   0.245E+02 0.190E+02
 gam= 0.000 trial= 0.321  step= 0.076 mean= 0.321
 gam= 0.651 g(H,U,f)=  0.417E+01 0.105E+02 0.127E+01 ort(H,U,f) = 0.337E+01 0.475E-01-0.841E+00
CGA:  15    -0.117907955794E+04   -0.10122E+01   -0.92686E+00  2944   0.160E+02 0.258E+01
 gam= 0.651 trial= 0.309  step= 0.046 mean= 0.309
 gam= 1.365 g(H,U,f)=  0.350E+01 0.124E+02 0.585E+01 ort(H,U,f) = 0.454E+01 0.317E+01-0.435E+01
CGA:  16    -0.117963058112E+04   -0.55102E+00   -0.40688E+00  2944   0.218E+02 0.336E+01
 gam= 1.365 trial= 0.296  step= 0.057 mean= 0.296
 gam= 0.000 g(H,U,f)=  0.680E+01 0.354E+02 0.455E+02 ort(H,U,f) =-0.311E+01-0.185E+02-0.286E+02
CGA:  17    -0.117944198156E+04    0.18860E+00   -0.75071E+00  2944   0.876E+02-0.502E+02
 gam= 0.000 trial= 0.284  step= 0.121 mean= 0.284
 gam= 1.317 g(H,U,f)=  0.106E+02 0.760E+02 0.288E+02 ort(H,U,f) =-0.429E+01-0.179E+02-0.765E+01
CGA:  18    -0.117791366650E+04    0.15283E+01   -0.53085E+01  2944   0.115E+03-0.298E+02
 gam= 1.317 trial= 0.276  step= 0.114 mean= 0.276
 gam= 0.000 g(H,U,f)=  0.159E+02 0.120E+03 0.105E+03 ort(H,U,f) =-0.698E+01-0.475E+02-0.620E+02
CGA:  19    -0.117752413103E+04    0.38954E+00   -0.43424E+01  2944   0.241E+03-0.116E+03
 gam= 0.000 trial= 0.268  step= 0.123 mean= 0.268
 gam= 0.385 g(H,U,f)=  0.198E+02 0.473E+02 0.256E+02 ort(H,U,f) =-0.127E+02-0.188E+02-0.764E+01
CGA:  20    -0.117631241510E+04    0.12117E+01   -0.14778E+02  2944   0.927E+02-0.392E+02
 gam= 0.385 trial= 0.261  step= 0.093 mean= 0.261
 gam= 0.000 g(H,U,f)=  0.206E+02 0.122E+03 0.975E+02 ort(H,U,f) =-0.124E+02-0.866E+02-0.728E+02
CGA:  21    -0.117576936688E+04    0.54305E+00   -0.36065E+01  2944   0.240E+03-0.172E+03
 gam= 0.000 trial= 0.252  step= 0.116 mean= 0.252
 gam= 0.304 g(H,U,f)=  0.237E+02 0.396E+02 0.975E+01 ort(H,U,f) =-0.170E+02-0.169E+02-0.258E+01
CGA:  22    -0.117568295346E+04    0.86413E-01   -0.13886E+02  2944   0.731E+02-0.364E+02
 gam= 0.304 trial= 0.245  step= 0.088 mean= 0.245
 gam= 0.000 g(H,U,f)=  0.143E+02 0.104E+03 0.505E+02 ort(H,U,f) =-0.906E+01-0.112E+03-0.638E+02
CGA:  23    -0.117890372407E+04   -0.32208E+01   -0.27393E+01  2944   0.169E+03-0.185E+03
 gam= 0.000 trial= 0.238  step= 0.103 mean= 0.238
 gam= 0.623 g(H,U,f)=  0.160E+02 0.489E+02 0.402E+02 ort(H,U,f) =-0.976E+01-0.188E+02-0.102E+02
CGA:  24    -0.117816210081E+04    0.74162E+00   -0.86603E+01  2944   0.105E+03-0.388E+02
 gam= 0.623 trial= 0.231  step= 0.083 mean= 0.231
 gam= 0.000 g(H,U,f)=  0.172E+02 0.101E+03 0.182E+03 ort(H,U,f) =-0.109E+02-0.631E+02-0.118E+03
CGA:  25    -0.117775638302E+04    0.40572E+00   -0.33506E+01  2944   0.300E+03-0.192E+03
 gam= 0.000 trial= 0.223  step= 0.105 mean= 0.223
 gam= 0.275 g(H,U,f)=  0.199E+02 0.388E+02 0.238E+02 ort(H,U,f) =-0.128E+02-0.167E+02-0.845E+01
CGA:  26    -0.117714121773E+04    0.61517E+00   -0.15754E+02  2944   0.825E+02-0.379E+02
 gam= 0.275 trial= 0.217  step= 0.078 mean= 0.217
 gam= 0.000 g(H,U,f)=  0.164E+02 0.107E+03 0.615E+02 ort(H,U,f) =-0.112E+02-0.108E+03-0.578E+02
CGA:  27    -0.117820486192E+04   -0.10636E+01   -0.28040E+01  2944   0.185E+03-0.177E+03
 gam= 0.000 trial= 0.210  step= 0.094 mean= 0.210
 gam= 0.377 g(H,U,f)=  0.180E+02 0.349E+02 0.168E+02 ort(H,U,f) =-0.127E+02-0.198E+02-0.697E+01
CGA:  28    -0.117782131188E+04    0.38355E+00   -0.87256E+01  2944   0.697E+02-0.395E+02
 gam= 0.377 trial= 0.205  step= 0.065 mean= 0.205
 gam= 0.000 g(H,U,f)=  0.584E+01 0.308E+02 0.563E+02 ort(H,U,f) =-0.384E+01-0.294E+02-0.843E+02
CGA:  29    -0.118219349931E+04   -0.43722E+01   -0.17786E+01  2944   0.929E+02-0.118E+03
 gam= 0.000 trial= 0.198  step= 0.091 mean= 0.198
 gam= 0.842 g(H,U,f)=  0.554E+01 0.365E+02 0.362E+02 ort(H,U,f) =-0.354E+01-0.793E+01-0.719E+01
CGA:  30    -0.118220447427E+04   -0.10975E-01   -0.42127E+01  2944   0.782E+02-0.187E+02
 gam= 0.842 trial= 0.192  step= 0.062 mean= 0.192
 gam= 0.000 g(H,U,f)=  0.684E+01 0.480E+02 0.389E+02 ort(H,U,f) =-0.368E+01-0.257E+02-0.262E+02
CGA:  31    -0.118191060169E+04    0.29387E+00   -0.19510E+01  2944   0.937E+02-0.556E+02
 gam= 0.000 trial= 0.186  step= 0.085 mean= 0.186
 gam= 1.149 g(H,U,f)=  0.793E+01 0.481E+02 0.517E+02 ort(H,U,f) =-0.431E+01-0.141E+02-0.778E+01
CGA:  32    -0.118144781276E+04    0.46279E+00   -0.39645E+01  2944   0.108E+03-0.262E+02
 gam= 1.149 trial= 0.181  step= 0.059 mean= 0.181
 gam= 0.000 g(H,U,f)=  0.104E+02 0.525E+02 0.653E+02 ort(H,U,f) =-0.745E+01-0.358E+02-0.578E+02
CGA:  33    -0.118112999868E+04    0.31781E+00   -0.22817E+01  2944   0.128E+03-0.101E+03
 gam= 0.000 trial= 0.175  step= 0.089 mean= 0.175
 gam= 0.735 g(H,U,f)=  0.612E+01 0.457E+02 0.424E+02 ort(H,U,f) =-0.434E+01-0.685E+01 0.666E+00
CGA:  34    -0.118218662693E+04   -0.10566E+01   -0.56886E+01  2944   0.942E+02-0.105E+02
 gam= 0.735 trial= 0.170  step= 0.057 mean= 0.170
 gam= 0.000 g(H,U,f)=  0.102E+02 0.672E+02 0.671E+02 ort(H,U,f) =-0.665E+01-0.453E+02-0.463E+02
CGA:  35    -0.118091817674E+04    0.12685E+01   -0.24442E+01  2944   0.145E+03-0.983E+02
 gam= 0.000 trial= 0.165  step= 0.076 mean= 0.165
 gam= 0.681 g(H,U,f)=  0.943E+01 0.505E+02 0.386E+02 ort(H,U,f) =-0.556E+01-0.194E+02-0.938E+01
CGA:  36    -0.118102722628E+04   -0.10905E+00   -0.55196E+01  2944   0.985E+02-0.343E+02
 gam= 0.681 trial= 0.160  step= 0.050 mean= 0.160
 gam= 0.000 g(H,U,f)=  0.558E+01 0.231E+02 0.445E+02 ort(H,U,f) =-0.414E+01-0.276E+02-0.575E+02
CGA:  37    -0.118275319937E+04   -0.17260E+01   -0.18754E+01  2944   0.732E+02-0.892E+02
 gam= 0.000 trial= 0.155  step= 0.069 mean= 0.155
 gam= 0.313 g(H,U,f)=  0.203E+01 0.116E+02 0.933E+01 ort(H,U,f) =-0.233E+01-0.677E+01-0.377E+01
CGA:  38    -0.118378826723E+04   -0.10351E+01   -0.25081E+01  2944   0.229E+02-0.129E+02
 gam= 0.313 trial= 0.150  step= 0.033 mean= 0.150
 gam= 0.799 g(H,U,f)=  0.125E+01 0.108E+02 0.627E+01 ort(H,U,f) = 0.351E+00-0.162E+01-0.280E+01
CGA:  39    -0.118405782440E+04   -0.26956E+00   -0.31193E+00  2944   0.183E+02-0.407E+01
 gam= 0.799 trial= 0.145  step= 0.020 mean= 0.145
 gam= 0.681 g(H,U,f)=  0.632E+00 0.879E+01 0.306E+01 ort(H,U,f) = 0.747E+00 0.424E+01 0.245E+00
CGA:  40    -0.118427368215E+04   -0.21586E+00   -0.14788E+00  2944   0.125E+02 0.523E+01
 gam= 0.681 trial= 0.138  step= 0.027 mean= 0.138
 gam= 0.000 g(H,U,f)=  0.560E+00 0.609E+01 0.246E+01 ort(H,U,f) =-0.278E+00-0.888E+01-0.124E+01
CGA:  41    -0.118435814942E+04   -0.84467E-01   -0.21414E+00  2944   0.912E+01-0.104E+02
 gam= 0.000 trial= 0.133  step= 0.042 mean= 0.133
 gam= 0.260 g(H,U,f)=  0.211E+00 0.126E+01 0.902E+00 ort(H,U,f) = 0.269E-01-0.126E+01-0.141E+01
CGA:  42    -0.118448158677E+04   -0.12344E+00   -0.19231E+00  2944   0.237E+01-0.264E+01
 gam= 0.260 trial= 0.128  step= 0.039 mean= 0.128
 gam= 0.498 g(H,U,f)=  0.111E+00 0.970E+00 0.103E+00 ort(H,U,f) = 0.117E+00 0.272E-01-0.114E+00
CGA:  43    -0.118451544160E+04   -0.33855E-01   -0.32941E-01  2944   0.118E+01 0.303E-01
 gam= 0.498 trial= 0.124  step= 0.075 mean= 0.124
 gam= 1.095 g(H,U,f)=  0.158E+00 0.777E+00 0.360E+00 ort(H,U,f) = 0.125E+00-0.539E-01-0.896E-01
CGA:  44    -0.118455722251E+04   -0.41781E-01   -0.44726E-01  2944   0.130E+01-0.180E-01
 gam= 1.095 trial= 0.121  step= 0.143 mean= 0.121
 gam= 2.533 g(H,U,f)=  0.206E+00 0.207E+01 0.100E+01 ort(H,U,f) = 0.246E+00 0.229E+00-0.260E+00
CGA:  45    -0.118465195162E+04   -0.94729E-01   -0.91091E-01  2944   0.328E+01 0.215E+00
 gam= 2.533 trial= 0.122  step= 0.068 mean= 0.122
 gam= 0.385 g(H,U,f)=  0.154E+00 0.893E+00 0.218E+00 ort(H,U,f) =-0.102E+00 0.259E+00-0.177E+00
CGA:  46    -0.118478306426E+04   -0.13111E+00   -0.13102E+00  2944   0.126E+01-0.195E-01
 gam= 0.385 trial= 0.120  step= 0.101 mean= 0.120
 gam= 0.449 g(H,U,f)=  0.445E-01 0.374E+00 0.150E+00 ort(H,U,f) = 0.892E-01 0.999E-01-0.828E-01
CGA:  47    -0.118484360683E+04   -0.60543E-01   -0.63512E-01  2944   0.568E+00 0.106E+00
 gam= 0.449 trial= 0.119  step= 0.057 mean= 0.119
 gam= 0.376 g(H,U,f)=  0.401E-01 0.124E+00 0.499E-01 ort(H,U,f) = 0.453E-01-0.267E-02-0.463E-01
CGA:  48    -0.118486086243E+04   -0.17256E-01   -0.17414E-01  2944   0.214E+00-0.366E-02
 gam= 0.376 trial= 0.116  step= 0.132 mean= 0.116
 gam= 0.962 g(H,U,f)=  0.285E-01 0.125E+00 0.517E-01 ort(H,U,f) = 0.333E-01 0.425E-02-0.288E-01
CGA:  49    -0.118487495316E+04   -0.14091E-01   -0.13979E-01  2944   0.206E+00 0.873E-02
 gam= 0.962 trial= 0.116  step= 0.106 mean= 0.116
 gam= 0.963 g(H,U,f)=  0.296E-01 0.123E+00 0.458E-01 ort(H,U,f) = 0.483E-01-0.248E-01-0.223E-01
CGA:  50    -0.118488631423E+04   -0.11361E-01   -0.11377E-01  2944   0.198E+00 0.122E-02
 gam= 0.963 trial= 0.116  step= 0.102 mean= 0.116
 gam= 0.475 g(H,U,f)=  0.181E-01 0.621E-01 0.140E-01 ort(H,U,f) = 0.260E-01-0.112E-01-0.118E-01
CGA:  51    -0.118489639492E+04   -0.10081E-01   -0.10140E-01  2944   0.942E-01 0.295E-02
 gam= 0.475 trial= 0.115  step= 0.093 mean= 0.115
 gam= 0.637 g(H,U,f)=  0.118E-01 0.346E-01 0.136E-01 ort(H,U,f) = 0.255E-01-0.191E-01-0.644E-02
CGA:  52    -0.118490085485E+04   -0.44599E-02   -0.44624E-02  2944   0.600E-01 0.140E-04
 gam= 0.637 trial= 0.114  step= 0.098 mean= 0.114
 gam= 0.714 g(H,U,f)=  0.957E-02 0.239E-01 0.939E-02 ort(H,U,f) = 0.170E-01-0.885E-02-0.769E-02
CGA:  53    -0.118490377541E+04   -0.29206E-02   -0.29336E-02  2944   0.429E-01 0.500E-03
 gam= 0.714 trial= 0.113  step= 0.137 mean= 0.113
 gam= 0.915 g(H,U,f)=  0.685E-02 0.228E-01 0.954E-02 ort(H,U,f) = 0.116E-01-0.778E-02-0.357E-02
CGA:  54    -0.118490675014E+04   -0.29747E-02   -0.29704E-02  2944   0.392E-01 0.212E-03
 gam= 0.915 trial= 0.115  step= 0.097 mean= 0.115
 gam= 0.686 g(H,U,f)=  0.639E-02 0.158E-01 0.469E-02 ort(H,U,f) = 0.110E-01-0.690E-02-0.385E-02
CGA:  55    -0.118490865136E+04   -0.19012E-02   -0.19099E-02  2944   0.269E-01 0.259E-03
 gam= 0.686 trial= 0.114  step= 0.115 mean= 0.114
 gam= 0.652 g(H,U,f)=  0.373E-02 0.103E-01 0.345E-02 ort(H,U,f) = 0.794E-02-0.616E-02-0.183E-02
CGA:  56    -0.118491020404E+04   -0.15527E-02   -0.15527E-02  2944   0.175E-01-0.427E-04
 gam= 0.652 trial= 0.114  step= 0.120 mean= 0.114
 gam= 0.978 g(H,U,f)=  0.276E-02 0.102E-01 0.414E-02 ort(H,U,f) = 0.647E-02-0.401E-02-0.237E-02
CGA:  57    -0.118491125403E+04   -0.10500E-02   -0.10491E-02  2944   0.171E-01 0.854E-04
 gam= 0.978 trial= 0.114  step= 0.110 mean= 0.114
 gam= 0.578 g(H,U,f)=  0.182E-02 0.600E-02 0.209E-02 ort(H,U,f) = 0.535E-02-0.419E-02-0.129E-02
CGA:  58    -0.118491220069E+04   -0.94666E-03   -0.94648E-03  2944   0.991E-02-0.134E-03
 gam= 0.578 trial= 0.114  step= 0.122 mean= 0.114
 gam= 0.907 g(H,U,f)=  0.142E-02 0.544E-02 0.212E-02 ort(H,U,f) = 0.338E-02-0.212E-02-0.131E-02
CGA:  59    -0.118491279984E+04   -0.59915E-03   -0.59919E-03  2944   0.899E-02-0.578E-04
 gam= 0.907 trial= 0.114  step= 0.115 mean= 0.114
 gam= 0.805 g(H,U,f)=  0.123E-02 0.457E-02 0.143E-02 ort(H,U,f) = 0.281E-02-0.207E-02-0.858E-03
CGA:  60    -0.118491331240E+04   -0.51256E-03   -0.51259E-03  2944   0.723E-02-0.116E-03
 gam= 0.805 trial= 0.114  step= 0.142 mean= 0.114
 gam= 0.880 g(H,U,f)=  0.860E-03 0.416E-02 0.134E-02 ort(H,U,f) = 0.213E-02-0.152E-02-0.686E-03
CGA:  61    -0.118491382032E+04   -0.50792E-03   -0.50876E-03  2944   0.637E-02-0.770E-04
 gam= 0.880 trial= 0.116  step= 0.097 mean= 0.116
 gam= 0.596 g(H,U,f)=  0.715E-03 0.222E-02 0.861E-03 ort(H,U,f) = 0.181E-02-0.131E-02-0.581E-03
CGA:  62    -0.118491412692E+04   -0.30659E-03   -0.30589E-03  2944   0.379E-02-0.757E-04
 gam= 0.596 trial= 0.115  step= 0.124 mean= 0.115
 gam= 0.768 g(H,U,f)=  0.557E-03 0.162E-02 0.731E-03 ort(H,U,f) = 0.126E-02-0.830E-03-0.476E-03
CGA:  63    -0.118491435906E+04   -0.23214E-03   -0.23233E-03  2944   0.291E-02-0.478E-04
 gam= 0.768 trial= 0.115  step= 0.132 mean= 0.115
 gam= 1.147 g(H,U,f)=  0.453E-03 0.216E-02 0.729E-03 ort(H,U,f) = 0.109E-02-0.788E-03-0.361E-03
CGA:  64    -0.118491454893E+04   -0.18987E-03   -0.19038E-03  2944   0.334E-02-0.571E-04
 gam= 1.147 trial= 0.116  step= 0.133 mean= 0.116
 gam= 0.719 g(H,U,f)=  0.342E-03 0.161E-02 0.450E-03 ort(H,U,f) = 0.104E-02-0.854E-03-0.244E-03
CGA:  65    -0.118491476542E+04   -0.21649E-03   -0.21695E-03  2944   0.240E-02-0.562E-04
 gam= 0.719 trial= 0.117  step= 0.113 mean= 0.117
 gam= 0.732 g(H,U,f)=  0.290E-03 0.106E-02 0.402E-03 ort(H,U,f) = 0.760E-03-0.537E-03-0.255E-03
CGA:  66    -0.118491489841E+04   -0.13300E-03   -0.13292E-03  2944   0.176E-02-0.327E-04
 gam= 0.732 trial= 0.117  step= 0.109 mean= 0.117
 gam= 0.726 g(H,U,f)=  0.256E-03 0.721E-03 0.299E-03 ort(H,U,f) = 0.624E-03-0.450E-03-0.181E-03
CGA:  67    -0.118491499328E+04   -0.94867E-04   -0.94839E-04  2944   0.128E-02-0.758E-05
 gam= 0.726 trial= 0.116  step= 0.168 mean= 0.116
 gam= 1.393 g(H,U,f)=  0.225E-03 0.113E-02 0.423E-03 ort(H,U,f) = 0.523E-03-0.340E-03-0.184E-03
CGA:  68    -0.118491509976E+04   -0.10648E-03   -0.10653E-03  2944   0.178E-02-0.919E-06
 gam= 1.393 trial= 0.119  step= 0.118 mean= 0.119
 gam= 0.772 g(H,U,f)=  0.213E-03 0.892E-03 0.267E-03 ort(H,U,f) = 0.659E-03-0.503E-03-0.141E-03
CGA:  69    -0.118491520443E+04   -0.10467E-03   -0.10468E-03  2944   0.137E-02 0.149E-04
 gam= 0.772 trial= 0.119  step= 0.128 mean= 0.119
 gam= 0.753 g(H,U,f)=  0.169E-03 0.648E-03 0.216E-03 ort(H,U,f) = 0.508E-03-0.354E-03-0.140E-03
CGA:  70    -0.118491529304E+04   -0.88611E-04   -0.88560E-04  2944   0.103E-02 0.136E-04
 gam= 0.753 trial= 0.119  step= 0.111 mean= 0.119
 gam= 0.891 g(H,U,f)=  0.163E-03 0.545E-03 0.212E-03 ort(H,U,f) = 0.426E-03-0.308E-03-0.104E-03
CGA:  71    -0.118491535064E+04   -0.57607E-04   -0.57666E-04  2944   0.920E-03 0.138E-04
 gam= 0.891 trial= 0.119  step= 0.155 mean= 0.119
 gam= 0.000 g(H,U,f)=  0.156E-03 0.604E-03 0.238E-03 ort(H,U,f) = 0.387E-03-0.246E-03-0.128E-03
SDA:  72    -0.118491542292E+04   -0.72278E-04   -0.72067E-04  2944   0.998E-03 0.126E-04
 gam= 0.000 trial= 0.121  step= 0.042 mean= 0.121
 gam= 0.194 g(H,U,f)=  0.106E-03 0.755E-04 0.129E-04 ort(H,U,f) = 0.100E-03-0.585E-04-0.423E-04
CGA:  73    -0.118491544373E+04   -0.20808E-04   -0.20879E-04  2944   0.194E-03-0.552E-06
 gam= 0.194 trial= 0.117  step= 0.223 mean= 0.117
 gam= 2.150 g(H,U,f)=  0.112E-03 0.255E-03 0.502E-04 ort(H,U,f) = 0.784E-04-0.610E-04-0.163E-04
CGA:  74    -0.118491546545E+04   -0.21721E-04   -0.21655E-04  2944   0.417E-03 0.114E-05
 gam= 2.150 trial= 0.122  step= 0.273 mean= 0.122
 gam= 0.831 g(H,U,f)=  0.206E-03 0.127E-03 0.134E-04 ort(H,U,f) = 0.505E-04-0.422E-04-0.739E-05
CGA:  75    -0.118491552273E+04   -0.57279E-04   -0.57203E-04  2944   0.347E-03 0.908E-06
 gam= 0.831 trial= 0.130  step= 0.313 mean= 0.130
 gam= 0.815 g(H,U,f)=  0.153E-03 0.100E-03 0.290E-04 ort(H,U,f) = 0.766E-04-0.547E-04-0.878E-05
CGA:  76    -0.118491557832E+04   -0.55590E-04   -0.54379E-04  2944   0.282E-03 0.132E-04
 gam= 0.815 trial= 0.139  step= 0.134 mean= 0.139
 gam= 1.740 g(H,U,f)=  0.129E-03 0.263E-03 0.997E-04 ort(H,U,f) = 0.150E-03-0.104E-03-0.374E-04
CGA:  77    -0.118491559792E+04   -0.19597E-04   -0.19618E-04  2944   0.492E-03 0.828E-05
 gam= 1.740 trial= 0.138  step= 0.109 mean= 0.138
 gam= 0.626 g(H,U,f)=  0.122E-03 0.163E-03 0.224E-04 ort(H,U,f) = 0.218E-03-0.180E-03-0.214E-04
CGA:  78    -0.118491562536E+04   -0.27438E-04   -0.27676E-04  2944   0.308E-03 0.162E-04
 gam= 0.626 trial= 0.137  step= 0.247 mean= 0.137
 gam= 0.589 g(H,U,f)=  0.914E-04 0.828E-04 0.703E-05 ort(H,U,f) = 0.978E-04-0.653E-04-0.457E-05
CGA:  79    -0.118491566614E+04   -0.40785E-04   -0.39251E-04  2944   0.181E-03 0.279E-04
 gam= 0.589 trial= 0.143  step= 0.233 mean= 0.143
 gam= 1.121 g(H,U,f)=  0.780E-04 0.110E-03 0.154E-04 ort(H,U,f) = 0.838E-04-0.654E-04-0.530E-05
CGA:  80    -0.118491568974E+04   -0.23600E-04   -0.23004E-04  2944   0.203E-03 0.132E-04
 gam= 1.121 trial= 0.147  step= 0.211 mean= 0.147
 gam= 3.003 g(H,U,f)=  0.893E-04 0.383E-03 0.138E-03 ort(H,U,f) = 0.112E-03-0.707E-04-0.304E-04
CGA:  81    -0.118491571304E+04   -0.23295E-04   -0.22956E-04  2944   0.610E-03 0.106E-04
 gam= 3.003 trial= 0.150  step= 0.115 mean= 0.150
 gam= 0.684 g(H,U,f)=  0.134E-03 0.247E-03 0.367E-04 ort(H,U,f) = 0.152E-03-0.110E-03-0.263E-04
CGA:  82    -0.118491574972E+04   -0.36686E-04   -0.36991E-04  2944   0.417E-03 0.166E-04
 gam= 0.684 trial= 0.148  step= 0.180 mean= 0.148
 gam= 0.771 g(H,U,f)=  0.141E-03 0.153E-03 0.269E-04 ort(H,U,f) = 0.861E-04-0.587E-04-0.160E-04
CGA:  83    -0.118491578844E+04   -0.38713E-04   -0.38539E-04  2944   0.321E-03 0.114E-04
 gam= 0.771 trial= 0.150  step= 0.216 mean= 0.150
 gam= 1.044 g(H,U,f)=  0.138E-03 0.165E-03 0.324E-04 ort(H,U,f) = 0.105E-03-0.832E-04-0.161E-04
CGA:  84    -0.118491582434E+04   -0.35903E-04   -0.35724E-04  2944   0.335E-03 0.529E-05
 gam= 1.044 trial= 0.153  step= 0.267 mean= 0.153
 gam= 1.139 g(H,U,f)=  0.129E-03 0.197E-03 0.563E-04 ort(H,U,f) = 0.938E-04-0.823E-04-0.200E-04
CGA:  85    -0.118491586931E+04   -0.44972E-04   -0.45452E-04  2944   0.382E-03-0.848E-05
 gam= 1.139 trial= 0.159  step= 0.092 mean= 0.159
 gam= 1.108 g(H,U,f)=  0.123E-03 0.230E-03 0.702E-04 ort(H,U,f) = 0.162E-03-0.137E-03-0.319E-04
CGA:  86    -0.118491588661E+04   -0.17297E-04   -0.17059E-04  2944   0.423E-03-0.744E-05
 gam= 1.108 trial= 0.156  step= 0.154 mean= 0.156
 gam= 0.562 g(H,U,f)=  0.122E-03 0.954E-04 0.205E-04 ort(H,U,f) = 0.124E-03-0.122E-03-0.236E-04
CGA:  87    -0.118491591856E+04   -0.31949E-04   -0.31928E-04  2944   0.238E-03-0.222E-04
 gam= 0.562 trial= 0.156  step= 0.450 mean= 0.156
 gam= 1.259 g(H,U,f)=  0.137E-03 0.131E-03 0.312E-04 ort(H,U,f) =-0.292E-05-0.404E-04-0.800E-05
CGA:  88    -0.118491596174E+04   -0.43183E-04   -0.50746E-04  2944   0.299E-03-0.513E-04
 gam= 1.259 trial= 0.170  step= 0.119 mean= 0.170
 gam= 1.317 g(H,U,f)=  0.143E-03 0.194E-03 0.583E-04 ort(H,U,f) = 0.691E-04-0.575E-04-0.244E-04
CGA:  89    -0.118491597607E+04   -0.14325E-04   -0.13990E-04  2944   0.394E-03-0.129E-04
 gam= 1.317 trial= 0.168  step= 0.118 mean= 0.168
 gam= 0.809 g(H,U,f)=  0.138E-03 0.139E-03 0.421E-04 ort(H,U,f) = 0.128E-03-0.113E-03-0.275E-04
CGA:  90    -0.118491599853E+04   -0.22463E-04   -0.22177E-04  2944   0.319E-03-0.124E-04
 gam= 0.809 trial= 0.165  step= 0.200 mean= 0.165
 gam= 0.965 g(H,U,f)=  0.107E-03 0.161E-03 0.400E-04 ort(H,U,f) = 0.814E-04-0.746E-04-0.183E-04
CGA:  91    -0.118491602919E+04   -0.30661E-04   -0.30859E-04  2944   0.308E-03-0.114E-04
 gam= 0.965 trial= 0.167  step= 0.118 mean= 0.167
 gam= 1.082 g(H,U,f)=  0.846E-04 0.190E-03 0.585E-04 ort(H,U,f) = 0.779E-04-0.520E-04-0.281E-04
CGA:  92    -0.118491604675E+04   -0.17557E-04   -0.17507E-04  2944   0.333E-03-0.224E-05
 gam= 1.082 trial= 0.165  step= 0.098 mean= 0.165
 gam= 0.442 g(H,U,f)=  0.760E-04 0.629E-04 0.864E-05 ort(H,U,f) = 0.418E-04-0.354E-04-0.697E-05
CGA:  93    -0.118491606305E+04   -0.16305E-04   -0.16278E-04  2944   0.148E-03-0.576E-06
 gam= 0.442 trial= 0.161  step= 0.158 mean= 0.161
 gam= 1.007 g(H,U,f)=  0.552E-04 0.737E-04 0.197E-04 ort(H,U,f) = 0.433E-04-0.326E-04-0.941E-05
CGA:  94    -0.118491607470E+04   -0.11649E-04   -0.11652E-04  2944   0.149E-03 0.133E-05
 gam= 1.007 trial= 0.161  step= 0.145 mean= 0.161
 gam= 1.325 g(H,U,f)=  0.422E-04 0.115E-03 0.401E-04 ort(H,U,f) = 0.456E-04-0.315E-04-0.122E-04
CGA:  95    -0.118491608558E+04   -0.10882E-04   -0.10896E-04  2944   0.197E-03 0.191E-05
 gam= 1.325 trial= 0.160  step= 0.088 mean= 0.160
 gam= 0.343 g(H,U,f)=  0.311E-04 0.292E-04 0.723E-05 ort(H,U,f) = 0.320E-04-0.197E-04-0.101E-04
CGA:  96    -0.118491609425E+04   -0.86625E-05   -0.87507E-05  2944   0.675E-04 0.222E-05
 gam= 0.343 trial= 0.157  step= 0.187 mean= 0.157
 final diagonalization
   1 F= -.11849161E+04 E0= -.11848966E+04  d E =-.118492E+04  mag=   118.0000
quench:  g(F)=  0.000E+00 g(S)=  0.000E+00 dE (1.order)= 0.000E+00
 bond charge predicted
 wavefunctions rotated
       N       E                     dE             d eps       ncg     rms          ort
 gam= 0.000 g(H,U,f)=  0.155E-01 0.115E+00 0.487E-01 ort(H,U,f) = 0.000E+00 0.000E+00 0.000E+00
SDA:   1    -0.118491920508E+04   -0.31195E-02    0.00000E+00  2944   0.180E+00 0.000E+00
 gam= 0.000 trial= 0.158  step= 0.034 mean= 0.158
 gam= 0.042 g(H,U,f)=  0.673E-02 0.797E-03 0.809E-04 ort(H,U,f) = 0.655E-02 0.111E-04-0.151E-04
CGA:   2    -0.118492238695E+04   -0.31819E-02   -0.30497E-02  2944   0.760E-02 0.655E-02
 gam= 0.042 trial= 0.152  step= 0.283 mean= 0.152
 gam= 2.718 g(H,U,f)=  0.418E-02 0.122E-01 0.432E-02 ort(H,U,f) = 0.324E-02-0.254E-02-0.723E-03
CGA:   3    -0.118492349941E+04   -0.11125E-02   -0.11141E-02  2944   0.207E-01-0.232E-04
 gam= 2.718 trial= 0.158  step= 0.065 mean= 0.158
 gam= 0.431 g(H,U,f)=  0.284E-02 0.527E-02 0.812E-03 ort(H,U,f) = 0.439E-02-0.359E-02-0.847E-03
CGA:   4    -0.118492416656E+04   -0.66715E-03   -0.67064E-03  2944   0.892E-02-0.441E-04
 gam= 0.431 trial= 0.154  step= 0.114 mean= 0.154
 gam= 0.291 g(H,U,f)=  0.148E-02 0.918E-03 0.201E-03 ort(H,U,f) = 0.767E-03-0.640E-03-0.119E-03
CGA:   5    -0.118492467524E+04   -0.50868E-03   -0.50863E-03  2944   0.260E-02 0.852E-05
 gam= 0.291 trial= 0.152  step= 0.101 mean= 0.152
 gam= 1.254 g(H,U,f)=  0.887E-03 0.175E-02 0.618E-03 ort(H,U,f) = 0.101E-02-0.734E-03-0.271E-03
CGA:   6    -0.118492480656E+04   -0.13132E-03   -0.13112E-03  2944   0.326E-02 0.250E-06
 gam= 1.254 trial= 0.149  step= 0.090 mean= 0.149
 gam= 0.379 g(H,U,f)=  0.492E-03 0.658E-03 0.833E-04 ort(H,U,f) = 0.686E-03-0.590E-03-0.983E-04
CGA:   7    -0.118492495247E+04   -0.14591E-03   -0.14636E-03  2944   0.123E-02-0.190E-05
 gam= 0.379 trial= 0.146  step= 0.154 mean= 0.146
 gam= 0.619 g(H,U,f)=  0.208E-03 0.414E-03 0.141E-03 ort(H,U,f) = 0.135E-03-0.102E-03-0.352E-04
CGA:   8    -0.118492504744E+04   -0.94972E-04   -0.94974E-04  2944   0.764E-03-0.149E-05
 gam= 0.619 trial= 0.147  step= 0.061 mean= 0.147
 gam= 0.478 g(H,U,f)=  0.141E-03 0.179E-03 0.450E-04 ort(H,U,f) = 0.137E-03-0.852E-04-0.532E-04
CGA:   9    -0.118492507070E+04   -0.23263E-04   -0.23094E-04  2944   0.365E-03-0.139E-05
 gam= 0.478 trial= 0.142  step= 0.110 mean= 0.142
 gam= 0.543 g(H,U,f)=  0.803E-04 0.994E-04 0.186E-04 ort(H,U,f) = 0.814E-04-0.710E-04-0.139E-04
CGA:  10    -0.118492509081E+04   -0.20105E-04   -0.20046E-04  2944   0.198E-03-0.351E-05
 gam= 0.543 trial= 0.141  step= 0.156 mean= 0.141
 gam= 0.821 g(H,U,f)=  0.422E-04 0.882E-04 0.324E-04 ort(H,U,f) = 0.317E-04-0.215E-04-0.125E-04
CGA:  11    -0.118492510610E+04   -0.15293E-04   -0.15310E-04  2944   0.163E-03-0.231E-05
 gam= 0.821 trial= 0.142  step= 0.071 mean= 0.142
 gam= 0.642 g(H,U,f)=  0.290E-04 0.589E-04 0.166E-04 ort(H,U,f) = 0.280E-04-0.185E-04-0.105E-04
CGA:  12    -0.118492511183E+04   -0.57291E-05   -0.56918E-05  2944   0.105E-03-0.969E-06
 gam= 0.642 trial= 0.138  step= 0.105 mean= 0.138
 final diagonalization
   2 F= -.11849251E+04 E0= -.11849056E+04  d E =-.901759E-02  mag=   118.0000
quench:  g(F)=  0.000E+00 g(S)=  0.000E+00 dE (1.order)= 0.000E+00
 bond charge predicted
 wavefunctions rotated
       N       E                     dE             d eps       ncg     rms          ort
 gam= 0.000 g(H,U,f)=  0.396E+01 0.756E+00 0.454E+00 ort(H,U,f) = 0.000E+00 0.000E+00 0.000E+00
SDA:   1    -0.118354866322E+04    0.13764E+01    0.00000E+00  2944   0.517E+01 0.000E+00
 gam= 0.000 trial= 0.136  step= 0.130 mean= 0.136
 gam= 2.056 g(H,U,f)=  0.286E+01 0.591E+01 0.186E+01 ort(H,U,f) = 0.276E+01-0.224E+01-0.677E+00
CGA:   2    -0.118388627406E+04   -0.33761E+00   -0.33662E+00  2944   0.106E+02-0.157E+00
 gam= 2.056 trial= 0.136  step= 0.128 mean= 0.136
 gam= 0.573 g(H,U,f)=  0.158E+01 0.365E+01 0.860E+00 ort(H,U,f) = 0.168E+01-0.134E+01-0.372E+00
CGA:   3    -0.118454357584E+04   -0.65730E+00   -0.65700E+00  2944   0.609E+01-0.342E-01
 gam= 0.573 trial= 0.136  step= 0.084 mean= 0.136
 gam= 0.272 g(H,U,f)=  0.983E+00 0.474E+00 0.201E+00 ort(H,U,f) = 0.565E+00-0.449E+00-0.199E+00
CGA:   4    -0.118478613140E+04   -0.24256E+00   -0.25573E+00  2944   0.166E+01-0.837E-01
 gam= 0.272 trial= 0.133  step= 0.092 mean= 0.133
 gam= 1.255 g(H,U,f)=  0.628E+00 0.100E+01 0.449E+00 ort(H,U,f) = 0.752E+00-0.494E+00-0.262E+00
CGA:   5    -0.118486201067E+04   -0.75879E-01   -0.75352E-01  2944   0.208E+01-0.385E-02
 gam= 1.255 trial= 0.131  step= 0.130 mean= 0.131
 gam= 0.211 g(H,U,f)=  0.233E+00 0.186E+00 0.201E-01 ort(H,U,f) = 0.150E+00-0.137E+00-0.117E-01
CGA:   6    -0.118499678880E+04   -0.13478E+00   -0.13478E+00  2944   0.439E+00 0.132E-02
 gam= 0.211 trial= 0.131  step= 0.142 mean= 0.131
 gam= 1.027 g(H,U,f)=  0.123E+00 0.219E+00 0.109E+00 ort(H,U,f) = 0.111E+00-0.681E-01-0.344E-01
CGA:   7    -0.118502806101E+04   -0.31272E-01   -0.31189E-01  2944   0.451E+00 0.874E-02
 gam= 1.027 trial= 0.131  step= 0.066 mean= 0.131
 gam= 0.422 g(H,U,f)=  0.721E-01 0.978E-01 0.205E-01 ort(H,U,f) = 0.115E+00-0.794E-01-0.282E-01
CGA:   8    -0.118504379257E+04   -0.15732E-01   -0.15242E-01  2944   0.190E+00 0.707E-02
 gam= 0.422 trial= 0.128  step= 0.139 mean= 0.128
 gam= 0.501 g(H,U,f)=  0.308E-01 0.500E-01 0.145E-01 ort(H,U,f) = 0.295E-01-0.217E-01-0.792E-02
CGA:   9    -0.118505724981E+04   -0.13457E-01   -0.13458E-01  2944   0.954E-01-0.840E-04
 gam= 0.501 trial= 0.129  step= 0.129 mean= 0.129
 gam= 0.377 g(H,U,f)=  0.151E-01 0.152E-01 0.559E-02 ort(H,U,f) = 0.904E-02-0.324E-02-0.468E-02
CGA:  10    -0.118506338722E+04   -0.61374E-02   -0.61374E-02  2944   0.359E-01 0.112E-02
 gam= 0.377 trial= 0.129  step= 0.088 mean= 0.129
 gam= 1.087 g(H,U,f)=  0.114E-01 0.198E-01 0.787E-02 ort(H,U,f) = 0.117E-01-0.713E-02-0.459E-02
CGA:  11    -0.118506498403E+04   -0.15968E-02   -0.15923E-02  2944   0.391E-01-0.681E-06
 gam= 1.087 trial= 0.127  step= 0.151 mean= 0.127
 gam= 0.464 g(H,U,f)=  0.669E-02 0.990E-02 0.154E-02 ort(H,U,f) = 0.461E-02-0.327E-02-0.146E-02
CGA:  12    -0.118506793318E+04   -0.29492E-02   -0.29516E-02  2944   0.181E-01-0.119E-03
 gam= 0.464 trial= 0.128  step= 0.170 mean= 0.128
 gam= 0.480 g(H,U,f)=  0.376E-02 0.412E-02 0.819E-03 ort(H,U,f) = 0.134E-02-0.670E-03-0.489E-03
CGA:  13    -0.118506947851E+04   -0.15453E-02   -0.15404E-02  2944   0.870E-02 0.182E-03
 gam= 0.480 trial= 0.130  step= 0.154 mean= 0.130
 gam= 1.085 g(H,U,f)=  0.266E-02 0.493E-02 0.186E-02 ort(H,U,f) = 0.177E-02-0.958E-03-0.835E-03
CGA:  14    -0.118507015376E+04   -0.67524E-03   -0.67572E-03  2944   0.945E-02-0.241E-04
 gam= 1.085 trial= 0.131  step= 0.084 mean= 0.131
 gam= 0.757 g(H,U,f)=  0.211E-02 0.436E-02 0.677E-03 ort(H,U,f) = 0.229E-02-0.171E-02-0.580E-03
CGA:  15    -0.118507054887E+04   -0.39511E-03   -0.39578E-03  2944   0.715E-02 0.449E-05
 gam= 0.757 trial= 0.129  step= 0.152 mean= 0.129
 gam= 0.442 g(H,U,f)=  0.127E-02 0.159E-02 0.298E-03 ort(H,U,f) = 0.657E-03-0.496E-03-0.175E-03
CGA:  16    -0.118507109060E+04   -0.54174E-03   -0.54199E-03  2944   0.316E-02-0.134E-04
 gam= 0.442 trial= 0.130  step= 0.162 mean= 0.130
 gam= 0.551 g(H,U,f)=  0.893E-03 0.659E-03 0.189E-03 ort(H,U,f) = 0.544E-03-0.394E-03-0.167E-03
CGA:  17    -0.118507134604E+04   -0.25544E-03   -0.25579E-03  2944   0.174E-02-0.175E-04
 gam= 0.551 trial= 0.132  step= 0.236 mean= 0.132
 gam= 1.332 g(H,U,f)=  0.599E-03 0.119E-02 0.528E-03 ort(H,U,f) = 0.424E-03-0.299E-03-0.126E-03
CGA:  18    -0.118507155070E+04   -0.20466E-03   -0.20469E-03  2944   0.232E-02-0.109E-05
 gam= 1.332 trial= 0.137  step= 0.075 mean= 0.137
 gam= 0.619 g(H,U,f)=  0.447E-03 0.754E-03 0.235E-03 ort(H,U,f) = 0.617E-03-0.396E-03-0.225E-03
CGA:  19    -0.118507163750E+04   -0.86796E-04   -0.86562E-04  2944   0.144E-02-0.300E-05
 gam= 0.619 trial= 0.134  step= 0.124 mean= 0.134
 gam= 0.407 g(H,U,f)=  0.279E-03 0.269E-03 0.360E-04 ort(H,U,f) = 0.297E-03-0.257E-03-0.424E-04
CGA:  20    -0.118507172658E+04   -0.89088E-04   -0.89073E-04  2944   0.584E-03-0.261E-05
 gam= 0.407 trial= 0.133  step= 0.209 mean= 0.133
 gam= 0.668 g(H,U,f)=  0.185E-03 0.183E-03 0.232E-04 ort(H,U,f) = 0.153E-03-0.132E-03-0.155E-04
CGA:  21    -0.118507178774E+04   -0.61160E-04   -0.60925E-04  2944   0.391E-03 0.608E-05
 gam= 0.668 trial= 0.137  step= 0.203 mean= 0.137
 gam= 1.115 g(H,U,f)=  0.135E-03 0.240E-03 0.598E-04 ort(H,U,f) = 0.129E-03-0.104E-03-0.197E-04
CGA:  22    -0.118507182797E+04   -0.40228E-04   -0.40077E-04  2944   0.435E-03 0.452E-05
 gam= 1.115 trial= 0.140  step= 0.119 mean= 0.140
 gam= 1.041 g(H,U,f)=  0.972E-04 0.265E-03 0.907E-04 ort(H,U,f) = 0.127E-03-0.855E-04-0.358E-04
CGA:  23    -0.118507185421E+04   -0.26239E-04   -0.26302E-04  2944   0.453E-03 0.553E-05
 gam= 1.041 trial= 0.139  step= 0.077 mean= 0.139
 gam= 0.311 g(H,U,f)=  0.800E-04 0.473E-04 0.136E-04 ort(H,U,f) = 0.103E-03-0.768E-04-0.222E-04
CGA:  24    -0.118507187169E+04   -0.17480E-04   -0.17580E-04  2944   0.141E-03 0.359E-05
 gam= 0.311 trial= 0.136  step= 0.316 mean= 0.136
 gam= 0.998 g(H,U,f)=  0.607E-04 0.624E-04 0.174E-04 ort(H,U,f) = 0.366E-04-0.250E-04-0.820E-05
CGA:  25    -0.118507189442E+04   -0.22732E-04   -0.22419E-04  2944   0.141E-03 0.343E-05
 gam= 0.998 trial= 0.145  step= 0.220 mean= 0.145
 gam= 0.770 g(H,U,f)=  0.413E-04 0.524E-04 0.146E-04 ort(H,U,f) = 0.278E-04-0.176E-04-0.669E-05
CGA:  26    -0.118507191043E+04   -0.16008E-04   -0.15872E-04  2944   0.108E-03 0.354E-05
 gam= 0.770 trial= 0.149  step= 0.126 mean= 0.149
 gam= 0.801 g(H,U,f)=  0.314E-04 0.388E-04 0.165E-04 ort(H,U,f) = 0.297E-04-0.204E-04-0.879E-05
CGA:  27    -0.118507191742E+04   -0.69898E-05   -0.69952E-05  2944   0.867E-04 0.497E-06
 gam= 0.801 trial= 0.148  step= 0.094 mean= 0.148
 final diagonalization
   3 F= -.11850719E+04 E0= -.11850527E+04  d E =-.146806E+00  mag=   118.0000
quench:  g(F)=  0.000E+00 g(S)=  0.000E+00 dE (1.order)= 0.000E+00
 bond charge predicted
 wavefunctions rotated
       N       E                     dE             d eps       ncg     rms          ort
 gam= 0.000 g(H,U,f)=  0.133E+02 0.967E+00 0.530E+00 ort(H,U,f) = 0.000E+00 0.000E+00 0.000E+00
SDA:   1    -0.118023330993E+04    0.48386E+01    0.00000E+00  2944   0.148E+02 0.000E+00
 gam= 0.000 trial= 0.145  step= 0.226 mean= 0.145
 gam= 3.055 g(H,U,f)=  0.788E+01 0.258E+02 0.115E+02 ort(H,U,f) = 0.698E+01-0.470E+01-0.210E+01
CGA:   2    -0.118189555530E+04   -0.16622E+01   -0.16755E+01  2944   0.453E+02 0.187E+00
 gam= 3.055 trial= 0.149  step= 0.085 mean= 0.149
 gam= 0.191 g(H,U,f)=  0.506E+01 0.314E+01 0.426E+00 ort(H,U,f) = 0.206E+01-0.268E+01-0.389E+00
CGA:   3    -0.118380184391E+04   -0.19063E+01   -0.19587E+01  2944   0.863E+01-0.101E+01
 gam= 0.191 trial= 0.146  step= 0.133 mean= 0.146
 gam= 0.601 g(H,U,f)=  0.284E+01 0.178E+01 0.575E+00 ort(H,U,f) = 0.259E+01-0.167E+01-0.542E+00
CGA:   4    -0.118435885457E+04   -0.55701E+00   -0.56308E+00  2944   0.519E+01 0.379E+00
 gam= 0.601 trial= 0.145  step= 0.223 mean= 0.145
 gam= 0.298 g(H,U,f)=  0.905E+00 0.525E+00 0.119E+00 ort(H,U,f) = 0.183E+00-0.354E+00-0.105E+00
CGA:   5    -0.118494973253E+04   -0.59088E+00   -0.60347E+00  2944   0.155E+01-0.276E+00
 gam= 0.298 trial= 0.149  step= 0.145 mean= 0.149
 gam= 1.002 g(H,U,f)=  0.493E+00 0.699E+00 0.359E+00 ort(H,U,f) = 0.447E+00-0.260E+00-0.146E+00
CGA:   6    -0.118505592490E+04   -0.10619E+00   -0.10637E+00  2944   0.155E+01 0.406E-01
 gam= 1.002 trial= 0.149  step= 0.082 mean= 0.149
 gam= 0.589 g(H,U,f)=  0.234E+00 0.513E+00 0.167E+00 ort(H,U,f) = 0.416E+00-0.260E+00-0.141E+00
CGA:   7    -0.118512350567E+04   -0.67581E-01   -0.65653E-01  2944   0.914E+00 0.148E-01
 gam= 0.589 trial= 0.146  step= 0.101 mean= 0.146
 gam= 0.203 g(H,U,f)=  0.967E-01 0.797E-01 0.933E-02 ort(H,U,f) = 0.958E-01-0.766E-01-0.187E-01
CGA:   8    -0.118516996909E+04   -0.46463E-01   -0.46773E-01  2944   0.186E+00 0.544E-03
 gam= 0.203 trial= 0.143  step= 0.203 mean= 0.143
 gam= 0.705 g(H,U,f)=  0.495E-01 0.661E-01 0.152E-01 ort(H,U,f) = 0.362E-01-0.241E-01-0.729E-02
CGA:   9    -0.118518897194E+04   -0.19003E-01   -0.18824E-01  2944   0.131E+00 0.479E-02
 gam= 0.705 trial= 0.146  step= 0.170 mean= 0.146
 gam= 0.587 g(H,U,f)=  0.269E-01 0.388E-01 0.111E-01 ort(H,U,f) = 0.164E-01-0.107E-01-0.705E-02
CGA:  10    -0.118520034543E+04   -0.11373E-01   -0.11400E-01  2944   0.768E-01-0.140E-02
 gam= 0.587 trial= 0.148  step= 0.117 mean= 0.148
 gam= 1.110 g(H,U,f)=  0.184E-01 0.472E-01 0.197E-01 ort(H,U,f) = 0.151E-01-0.727E-02-0.786E-02
CGA:  11    -0.118520481302E+04   -0.44676E-02   -0.44610E-02  2944   0.852E-01-0.768E-04
 gam= 1.110 trial= 0.146  step= 0.086 mean= 0.146
 gam= 0.359 g(H,U,f)=  0.123E-01 0.141E-01 0.423E-02 ort(H,U,f) = 0.974E-02-0.400E-02-0.594E-02
CGA:  12    -0.118520843198E+04   -0.36190E-02   -0.36562E-02  2944   0.306E-01-0.201E-03
 gam= 0.359 trial= 0.143  step= 0.197 mean= 0.143
 gam= 0.765 g(H,U,f)=  0.811E-02 0.128E-01 0.253E-02 ort(H,U,f) = 0.417E-02-0.266E-02-0.164E-02
CGA:  13    -0.118521143592E+04   -0.30039E-02   -0.30090E-02  2944   0.234E-01-0.122E-03
 gam= 0.765 trial= 0.146  step= 0.174 mean= 0.146
 gam= 0.656 g(H,U,f)=  0.509E-02 0.733E-02 0.295E-02 ort(H,U,f) = 0.215E-02-0.814E-03-0.117E-02
CGA:  14    -0.118521346784E+04   -0.20319E-02   -0.20286E-02  2944   0.154E-01 0.166E-03
 gam= 0.656 trial= 0.147  step= 0.084 mean= 0.147
 gam= 0.848 g(H,U,f)=  0.426E-02 0.638E-02 0.239E-02 ort(H,U,f) = 0.397E-02-0.216E-02-0.179E-02
CGA:  15    -0.118521412240E+04   -0.65457E-03   -0.65178E-03  2944   0.130E-01 0.193E-04
 gam= 0.848 trial= 0.144  step= 0.156 mean= 0.144
 gam= 0.717 g(H,U,f)=  0.308E-02 0.488E-02 0.136E-02 ort(H,U,f) = 0.280E-02-0.198E-02-0.843E-03
CGA:  16    -0.118521513707E+04   -0.10147E-02   -0.10149E-02  2944   0.933E-02-0.204E-04
 gam= 0.717 trial= 0.145  step= 0.164 mean= 0.145
 gam= 0.395 g(H,U,f)=  0.189E-02 0.146E-02 0.324E-03 ort(H,U,f) = 0.135E-02-0.987E-03-0.342E-03
CGA:  17    -0.118521589966E+04   -0.76259E-03   -0.76227E-03  2944   0.368E-02 0.212E-04
 gam= 0.395 trial= 0.146  step= 0.166 mean= 0.146
 gam= 1.549 g(H,U,f)=  0.135E-02 0.310E-02 0.125E-02 ort(H,U,f) = 0.134E-02-0.100E-02-0.330E-03
CGA:  18    -0.118521620639E+04   -0.30673E-03   -0.30663E-03  2944   0.570E-02 0.515E-05
 gam= 1.549 trial= 0.147  step= 0.089 mean= 0.147
 gam= 0.537 g(H,U,f)=  0.969E-03 0.159E-02 0.501E-03 ort(H,U,f) = 0.166E-02-0.119E-02-0.474E-03
CGA:  19    -0.118521646075E+04   -0.25436E-03   -0.25408E-03  2944   0.306E-02 0.114E-05
 gam= 0.537 trial= 0.144  step= 0.137 mean= 0.144
 gam= 0.414 g(H,U,f)=  0.617E-03 0.512E-03 0.139E-03 ort(H,U,f) = 0.721E-03-0.575E-03-0.134E-03
CGA:  20    -0.118521667006E+04   -0.20931E-03   -0.20937E-03  2944   0.127E-02 0.123E-04
 gam= 0.414 trial= 0.143  step= 0.222 mean= 0.143
 gam= 1.052 g(H,U,f)=  0.428E-03 0.656E-03 0.251E-03 ort(H,U,f) = 0.390E-03-0.290E-03-0.978E-04
CGA:  21    -0.118521681116E+04   -0.14110E-03   -0.14102E-03  2944   0.133E-02 0.238E-05
 gam= 1.052 trial= 0.147  step= 0.106 mean= 0.147
 gam= 1.016 g(H,U,f)=  0.342E-03 0.695E-03 0.318E-03 ort(H,U,f) = 0.474E-03-0.323E-03-0.145E-03
CGA:  22    -0.118521688201E+04   -0.70849E-04   -0.71036E-04  2944   0.135E-02 0.672E-05
 gam= 1.016 trial= 0.145  step= 0.106 mean= 0.145
 gam= 0.479 g(H,U,f)=  0.267E-03 0.295E-03 0.867E-04 ort(H,U,f) = 0.366E-03-0.257E-03-0.102E-03
CGA:  23    -0.118521695405E+04   -0.72036E-04   -0.72209E-04  2944   0.649E-03 0.721E-05
 gam= 0.479 trial= 0.143  step= 0.211 mean= 0.143
 gam= 0.746 g(H,U,f)=  0.198E-03 0.246E-03 0.396E-04 ort(H,U,f) = 0.158E-03-0.127E-03-0.258E-04
CGA:  24    -0.118521702296E+04   -0.68913E-04   -0.68745E-04  2944   0.484E-03 0.514E-05
 gam= 0.746 trial= 0.147  step= 0.174 mean= 0.147
 gam= 1.188 g(H,U,f)=  0.156E-03 0.306E-03 0.113E-03 ort(H,U,f) = 0.138E-03-0.105E-03-0.292E-04
CGA:  25    -0.118521706540E+04   -0.42435E-04   -0.42381E-04  2944   0.575E-03 0.402E-05
 gam= 1.188 trial= 0.148  step= 0.086 mean= 0.148
 gam= 0.710 g(H,U,f)=  0.131E-03 0.201E-03 0.753E-04 ort(H,U,f) = 0.172E-03-0.107E-03-0.625E-04
CGA:  26    -0.118521709025E+04   -0.24851E-04   -0.24949E-04  2944   0.408E-03 0.242E-05
 gam= 0.710 trial= 0.145  step= 0.156 mean= 0.145
 gam= 0.484 g(H,U,f)=  0.855E-04 0.875E-04 0.245E-04 ort(H,U,f) = 0.727E-04-0.529E-04-0.194E-04
CGA:  27    -0.118521712217E+04   -0.31925E-04   -0.31923E-04  2944   0.197E-03 0.319E-06
 gam= 0.484 trial= 0.145  step= 0.180 mean= 0.145
 gam= 0.754 g(H,U,f)=  0.582E-04 0.686E-04 0.221E-04 ort(H,U,f) = 0.476E-04-0.334E-04-0.126E-04
CGA:  28    -0.118521713998E+04   -0.17804E-04   -0.17774E-04  2944   0.149E-03 0.153E-05
 gam= 0.754 trial= 0.147  step= 0.138 mean= 0.147
 gam= 1.374 g(H,U,f)=  0.396E-04 0.113E-03 0.517E-04 ort(H,U,f) = 0.456E-04-0.277E-04-0.186E-04
CGA:  29    -0.118521715032E+04   -0.10343E-04   -0.10340E-04  2944   0.205E-03-0.674E-06
 gam= 1.374 trial= 0.147  step= 0.087 mean= 0.147
 gam= 0.293 g(H,U,f)=  0.254E-04 0.285E-04 0.594E-05 ort(H,U,f) = 0.319E-04-0.233E-04-0.888E-05
CGA:  30    -0.118521715920E+04   -0.88790E-05   -0.88706E-05  2944   0.598E-04-0.294E-06
 gam= 0.293 trial= 0.144  step= 0.169 mean= 0.144
 final diagonalization
   4 F= -.11852172E+04 E0= -.11851982E+04  d E =-.145242E+00  mag=   118.0000
quench:  g(F)=  0.000E+00 g(S)=  0.000E+00 dE (1.order)= 0.000E+00
 bond charge predicted
 wavefunctions rotated
       N       E                     dE             d eps       ncg     rms          ort
 gam= 0.000 g(H,U,f)=  0.195E+02 0.146E+01 0.306E+00 ort(H,U,f) = 0.000E+00 0.000E+00 0.000E+00
SDA:   1    -0.117832009030E+04    0.68971E+01    0.00000E+00  2944   0.212E+02 0.000E+00
 gam= 0.000 trial= 0.145  step= 0.279 mean= 0.145
 gam= 2.521 g(H,U,f)=  0.956E+01 0.236E+02 0.204E+02 ort(H,U,f) = 0.769E+01-0.357E+01-0.298E+01
CGA:   2    -0.118135759509E+04   -0.30375E+01   -0.29677E+01  2944   0.535E+02 0.114E+01
 gam= 2.521 trial= 0.152  step= 0.081 mean= 0.152
 gam= 0.232 g(H,U,f)=  0.744E+01 0.321E+01 0.178E+01 ort(H,U,f) = 0.223E+01-0.310E+01-0.221E+01
CGA:   3    -0.118320085095E+04   -0.18433E+01   -0.22744E+01  2944   0.124E+02-0.308E+01
 gam= 0.232 trial= 0.148  step= 0.136 mean= 0.148
 gam= 0.980 g(H,U,f)=  0.445E+01 0.623E+01 0.150E+01 ort(H,U,f) = 0.367E+01-0.482E+01-0.115E+01
CGA:   4    -0.118403051129E+04   -0.82966E+00   -0.79990E+00  2944   0.122E+02-0.230E+01
 gam= 0.980 trial= 0.148  step= 0.121 mean= 0.148
 gam= 0.810 g(H,U,f)=  0.225E+01 0.619E+01 0.144E+01 ort(H,U,f) = 0.210E+01-0.161E+01-0.626E+00
CGA:   5    -0.118463651263E+04   -0.60600E+00   -0.59956E+00  2944   0.987E+01-0.139E+00
 gam= 0.810 trial= 0.146  step= 0.077 mean= 0.146
 gam= 0.186 g(H,U,f)=  0.121E+01 0.497E+00 0.128E+00 ort(H,U,f) = 0.399E+00-0.759E+00-0.769E-01
CGA:   6    -0.118498210597E+04   -0.34559E+00   -0.37341E+00  2944   0.184E+01-0.437E+00
 gam= 0.186 trial= 0.143  step= 0.136 mean= 0.143
 gam= 1.668 g(H,U,f)=  0.616E+00 0.163E+01 0.819E+00 ort(H,U,f) = 0.687E+00-0.424E+00-0.277E+00
CGA:   7    -0.118510173256E+04   -0.11963E+00   -0.11953E+00  2944   0.306E+01-0.135E-01
 gam= 1.668 trial= 0.142  step= 0.080 mean= 0.142
 gam= 0.178 g(H,U,f)=  0.244E+00 0.286E+00 0.153E-01 ort(H,U,f) = 0.278E+00-0.283E+00-0.247E-01
CGA:   8    -0.118521996265E+04   -0.11823E+00   -0.12145E+00  2944   0.545E+00-0.296E-01
 gam= 0.178 trial= 0.139  step= 0.157 mean= 0.139
 gam= 0.474 g(H,U,f)=  0.120E+00 0.115E+00 0.236E-01 ort(H,U,f) = 0.695E-01-0.766E-01-0.642E-02
CGA:   9    -0.118526203249E+04   -0.42070E-01   -0.42261E-01  2944   0.259E+00-0.135E-01
 gam= 0.474 trial= 0.140  step= 0.126 mean= 0.140
 gam= 1.119 g(H,U,f)=  0.735E-01 0.161E+00 0.550E-01 ort(H,U,f) = 0.715E-01-0.492E-01-0.253E-01
CGA:  10    -0.118527800530E+04   -0.15973E-01   -0.15920E-01  2944   0.289E+00-0.294E-02
 gam= 1.119 trial= 0.139  step= 0.085 mean= 0.139
 gam= 0.601 g(H,U,f)=  0.486E-01 0.875E-01 0.380E-01 ort(H,U,f) = 0.614E-01-0.388E-01-0.237E-01
CGA:  11    -0.118528997021E+04   -0.11965E-01   -0.12195E-01  2944   0.174E+00-0.109E-02
 gam= 0.601 trial= 0.137  step= 0.123 mean= 0.137
 gam= 0.303 g(H,U,f)=  0.265E-01 0.215E-01 0.472E-02 ort(H,U,f) = 0.134E-01-0.305E-02-0.697E-02
CGA:  12    -0.118530057981E+04   -0.10610E-01   -0.10668E-01  2944   0.527E-01 0.342E-02
 gam= 0.303 trial= 0.136  step= 0.175 mean= 0.136
 gam= 1.260 g(H,U,f)=  0.172E-01 0.359E-01 0.133E-01 ort(H,U,f) = 0.115E-01-0.797E-02-0.351E-02
CGA:  13    -0.118530528038E+04   -0.47006E-02   -0.47016E-02  2944   0.664E-01-0.271E-04
 gam= 1.260 trial= 0.138  step= 0.077 mean= 0.138
 gam= 0.640 g(H,U,f)=  0.127E-01 0.229E-01 0.697E-02 ort(H,U,f) = 0.150E-01-0.899E-02-0.609E-02
CGA:  14    -0.118530780799E+04   -0.25276E-02   -0.25415E-02  2944   0.425E-01-0.103E-03
 gam= 0.640 trial= 0.135  step= 0.144 mean= 0.135
 gam= 0.469 g(H,U,f)=  0.826E-02 0.941E-02 0.224E-02 ort(H,U,f) = 0.408E-02-0.232E-02-0.187E-02
CGA:  15    -0.118531086811E+04   -0.30601E-02   -0.30611E-02  2944   0.199E-01-0.106E-03
 gam= 0.469 trial= 0.135  step= 0.172 mean= 0.135
 gam= 0.978 g(H,U,f)=  0.578E-02 0.978E-02 0.391E-02 ort(H,U,f) = 0.309E-02-0.202E-02-0.114E-02
CGA:  16    -0.118531257074E+04   -0.17026E-02   -0.17046E-02  2944   0.195E-01-0.763E-04
 gam= 0.978 trial= 0.137  step= 0.070 mean= 0.137
 gam= 0.609 g(H,U,f)=  0.508E-02 0.505E-02 0.173E-02 ort(H,U,f) = 0.511E-02-0.320E-02-0.197E-02
CGA:  17    -0.118531324525E+04   -0.67451E-03   -0.67986E-03  2944   0.119E-01-0.616E-04
 gam= 0.609 trial= 0.134  step= 0.217 mean= 0.134
 gam= 0.883 g(H,U,f)=  0.325E-02 0.616E-02 0.106E-02 ort(H,U,f) = 0.235E-02-0.186E-02-0.448E-03
CGA:  18    -0.118531453186E+04   -0.12866E-02   -0.12846E-02  2944   0.105E-01 0.427E-04
 gam= 0.883 trial= 0.138  step= 0.127 mean= 0.138
 gam= 0.477 g(H,U,f)=  0.220E-02 0.208E-02 0.712E-03 ort(H,U,f) = 0.178E-02-0.142E-02-0.375E-03
CGA:  19    -0.118531519891E+04   -0.66705E-03   -0.66676E-03  2944   0.499E-02-0.200E-04
 gam= 0.477 trial= 0.137  step= 0.099 mean= 0.137
 gam= 1.177 g(H,U,f)=  0.173E-02 0.292E-02 0.123E-02 ort(H,U,f) = 0.200E-02-0.131E-02-0.673E-03
CGA:  20    -0.118531544566E+04   -0.24675E-03   -0.24732E-03  2944   0.588E-02 0.984E-05
 gam= 1.177 trial= 0.136  step= 0.133 mean= 0.136
 gam= 0.497 g(H,U,f)=  0.122E-02 0.139E-02 0.313E-03 ort(H,U,f) = 0.162E-02-0.134E-02-0.259E-03
CGA:  21    -0.118531583845E+04   -0.39280E-03   -0.39283E-03  2944   0.293E-02 0.218E-04
 gam= 0.497 trial= 0.135  step= 0.214 mean= 0.135
 gam= 0.631 g(H,U,f)=  0.754E-03 0.818E-03 0.274E-03 ort(H,U,f) = 0.631E-03-0.485E-03-0.140E-03
CGA:  22    -0.118531615244E+04   -0.31399E-03   -0.31376E-03  2944   0.185E-02 0.634E-05
 gam= 0.631 trial= 0.139  step= 0.118 mean= 0.139
 gam= 1.264 g(H,U,f)=  0.569E-03 0.122E-02 0.542E-03 ort(H,U,f) = 0.683E-03-0.441E-03-0.233E-03
CGA:  23    -0.118531626104E+04   -0.10859E-03   -0.10872E-03  2944   0.233E-02 0.895E-05
 gam= 1.264 trial= 0.138  step= 0.098 mean= 0.138
 gam= 0.458 g(H,U,f)=  0.462E-03 0.526E-03 0.812E-04 ort(H,U,f) = 0.672E-03-0.557E-03-0.108E-03
CGA:  24    -0.118531637549E+04   -0.11446E-03   -0.11461E-03  2944   0.107E-02 0.682E-05
 gam= 0.458 trial= 0.136  step= 0.213 mean= 0.136
 gam= 1.035 g(H,U,f)=  0.348E-03 0.641E-03 0.117E-03 ort(H,U,f) = 0.322E-03-0.272E-03-0.461E-04
CGA:  25    -0.118531648978E+04   -0.11429E-03   -0.11412E-03  2944   0.111E-02 0.414E-05
 gam= 1.035 trial= 0.140  step= 0.164 mean= 0.140
 gam= 0.617 g(H,U,f)=  0.249E-03 0.334E-03 0.100E-03 ort(H,U,f) = 0.190E-03-0.137E-03-0.449E-04
CGA:  26    -0.118531658073E+04   -0.90947E-04   -0.90840E-04  2944   0.683E-03 0.734E-05
 gam= 0.617 trial= 0.141  step= 0.083 mean= 0.141
 gam= 0.918 g(H,U,f)=  0.219E-03 0.275E-03 0.133E-03 ort(H,U,f) = 0.240E-03-0.161E-03-0.791E-04
CGA:  27    -0.118531660913E+04   -0.28399E-04   -0.28369E-04  2944   0.627E-03 0.161E-06
 gam= 0.918 trial= 0.138  step= 0.179 mean= 0.138
 gam= 0.638 g(H,U,f)=  0.160E-03 0.177E-03 0.632E-04 ort(H,U,f) = 0.136E-03-0.903E-04-0.477E-04
CGA:  28    -0.118531666527E+04   -0.56137E-04   -0.56174E-04  2944   0.400E-03-0.152E-05
 gam= 0.638 trial= 0.140  step= 0.204 mean= 0.140
 gam= 0.700 g(H,U,f)=  0.102E-03 0.130E-03 0.483E-04 ort(H,U,f) = 0.546E-04-0.389E-04-0.167E-04
CGA:  29    -0.118531670591E+04   -0.40647E-04   -0.40676E-04  2944   0.280E-03-0.104E-05
 gam= 0.700 trial= 0.144  step= 0.085 mean= 0.144
 gam= 0.850 g(H,U,f)=  0.804E-04 0.105E-03 0.533E-04 ort(H,U,f) = 0.804E-04-0.452E-04-0.368E-04
CGA:  30    -0.118531671790E+04   -0.11988E-04   -0.11936E-04  2944   0.238E-03-0.163E-05
 gam= 0.850 trial= 0.141  step= 0.125 mean= 0.141
 gam= 0.673 g(H,U,f)=  0.583E-04 0.852E-04 0.169E-04 ort(H,U,f) = 0.635E-04-0.503E-04-0.151E-04
CGA:  31    -0.118531673270E+04   -0.14800E-04   -0.14787E-04  2944   0.160E-03-0.184E-05
 gam= 0.673 trial= 0.140  step= 0.199 mean= 0.140
 gam= 0.000 g(H,U,f)=  0.316E-04 0.401E-04 0.735E-05 ort(H,U,f) = 0.200E-04-0.176E-04-0.345E-05
SDA:  32    -0.118531674847E+04   -0.15770E-04   -0.15800E-04  2944   0.791E-04-0.105E-05
 gam= 0.000 trial= 0.143  step= 0.093 mean= 0.143
 gam= 0.608 g(H,U,f)=  0.217E-04 0.188E-04 0.765E-05 ort(H,U,f) = 0.217E-04-0.158E-04-0.629E-05
CGA:  33    -0.118531675216E+04   -0.36857E-05   -0.36754E-05  2944   0.481E-04-0.437E-06
 gam= 0.608 trial= 0.140  step= 0.137 mean= 0.140
 final diagonalization
   5 F= -.11853168E+04 E0= -.11852978E+04  d E =-.995930E-01  mag=   118.0000
quench:  g(F)=  0.000E+00 g(S)=  0.000E+00 dE (1.order)= 0.000E+00
 bond charge predicted
 wavefunctions rotated
       N       E                     dE             d eps       ncg     rms          ort
 gam= 0.000 g(H,U,f)=  0.462E+02 0.225E+01 0.560E+00 ort(H,U,f) = 0.000E+00 0.000E+00 0.000E+00
SDA:   1    -0.116909041303E+04    0.16226E+02    0.00000E+00  2944   0.490E+02 0.000E+00
 gam= 0.000 trial= 0.140  step= 0.359 mean= 0.140
 gam= 0.497 g(H,U,f)=  0.173E+02 0.612E+01 0.979E+00 ort(H,U,f) = 0.989E+01-0.158E+01-0.302E+00
CGA:   2    -0.117878845755E+04   -0.96980E+01   -0.87895E+01  2944   0.244E+02 0.800E+01
 gam= 0.497 trial= 0.151  step= 0.229 mean= 0.151
 gam= 1.884 g(H,U,f)=  0.127E+02 0.273E+02 0.602E+01 ort(H,U,f) = 0.569E+01-0.141E+02-0.310E+01
CGA:   3    -0.118129037370E+04   -0.25019E+01   -0.32542E+01  2944   0.459E+02-0.115E+02
 gam= 1.884 trial= 0.155  step= 0.094 mean= 0.155
 gam= 0.985 g(H,U,f)=  0.116E+02 0.286E+02 0.508E+01 ort(H,U,f) = 0.289E+01-0.222E+01-0.640E+00
CGA:   4    -0.118243017517E+04   -0.11398E+01   -0.11371E+01  2944   0.453E+02 0.317E-01
 gam= 0.985 trial= 0.152  step= 0.064 mean= 0.152
 gam= 0.201 g(H,U,f)=  0.570E+01 0.267E+01 0.731E+00 ort(H,U,f) =-0.484E+01-0.176E+01-0.180E+01
CGA:   5    -0.118396272009E+04   -0.15325E+01   -0.14473E+01  2944   0.910E+01-0.840E+01
 gam= 0.201 trial= 0.147  step= 0.087 mean= 0.147
 gam= 0.855 g(H,U,f)=  0.367E+01 0.315E+01 0.962E+00 ort(H,U,f) = 0.252E+01-0.180E+01-0.898E+00
CGA:   6    -0.118426138903E+04   -0.29867E+00   -0.32290E+00  2944   0.778E+01-0.171E+00
 gam= 0.855 trial= 0.144  step= 0.142 mean= 0.144
 gam= 0.517 g(H,U,f)=  0.148E+01 0.227E+01 0.269E+00 ort(H,U,f) = 0.669E+00-0.138E+01-0.135E+00
CGA:   7    -0.118480450723E+04   -0.54312E+00   -0.54053E+00  2944   0.403E+01-0.849E+00
 gam= 0.517 trial= 0.144  step= 0.100 mean= 0.144
 gam= 0.732 g(H,U,f)=  0.963E+00 0.150E+01 0.488E+00 ort(H,U,f) = 0.362E+00-0.177E+00-0.172E+00
CGA:   8    -0.118498011405E+04   -0.17561E+00   -0.18013E+00  2944   0.295E+01 0.135E-01
 gam= 0.732 trial= 0.142  step= 0.060 mean= 0.142
 gam= 0.383 g(H,U,f)=  0.671E+00 0.385E+00 0.708E-01 ort(H,U,f) = 0.496E+00-0.397E+00-0.970E-01
CGA:   9    -0.118506907108E+04   -0.88957E-01   -0.88534E-01  2944   0.113E+01 0.139E-02
 gam= 0.383 trial= 0.138  step= 0.163 mean= 0.138
 gam= 0.806 g(H,U,f)=  0.397E+00 0.412E+00 0.993E-01 ort(H,U,f) = 0.281E+00-0.186E+00-0.576E-01
CGA:  10    -0.118516147414E+04   -0.92403E-01   -0.91694E-01  2944   0.908E+00 0.375E-01
 gam= 0.806 trial= 0.139  step= 0.151 mean= 0.139
 gam= 0.545 g(H,U,f)=  0.217E+00 0.233E+00 0.453E-01 ort(H,U,f) = 0.764E-01-0.102E+00-0.195E-01
CGA:  11    -0.118523204914E+04   -0.70575E-01   -0.71046E-01  2944   0.495E+00-0.453E-01
 gam= 0.545 trial= 0.140  step= 0.118 mean= 0.140
 gam= 0.737 g(H,U,f)=  0.150E+00 0.150E+00 0.648E-01 ort(H,U,f) = 0.822E-01-0.410E-01-0.355E-01
CGA:  12    -0.118525966552E+04   -0.27616E-01   -0.27810E-01  2944   0.365E+00 0.579E-02
 gam= 0.737 trial= 0.139  step= 0.083 mean= 0.139
 gam= 0.783 g(H,U,f)=  0.111E+00 0.141E+00 0.336E-01 ort(H,U,f) = 0.104E+00-0.778E-01-0.264E-01
CGA:  13    -0.118527493556E+04   -0.15270E-01   -0.15292E-01  2944   0.286E+00-0.106E-03
 gam= 0.783 trial= 0.136  step= 0.131 mean= 0.136
 gam= 0.425 g(H,U,f)=  0.638E-01 0.510E-01 0.661E-02 ort(H,U,f) = 0.490E-01-0.413E-01-0.607E-02
CGA:  14    -0.118529360603E+04   -0.18670E-01   -0.18679E-01  2944   0.121E+00 0.165E-02
 gam= 0.425 trial= 0.136  step= 0.196 mean= 0.136
 gam= 0.646 g(H,U,f)=  0.330E-01 0.387E-01 0.676E-02 ort(H,U,f) = 0.139E-01-0.115E-01-0.209E-02
CGA:  15    -0.118530560088E+04   -0.11995E-01   -0.11982E-01  2944   0.785E-01 0.330E-03
 gam= 0.646 trial= 0.139  step= 0.105 mean= 0.139
 gam= 0.623 g(H,U,f)=  0.232E-01 0.180E-01 0.772E-02 ort(H,U,f) = 0.165E-01-0.107E-01-0.566E-02
CGA:  16    -0.118530973985E+04   -0.41390E-02   -0.41514E-02  2944   0.489E-01 0.163E-03
 gam= 0.623 trial= 0.137  step= 0.111 mean= 0.137
 gam= 1.183 g(H,U,f)=  0.178E-01 0.321E-01 0.792E-02 ort(H,U,f) = 0.182E-01-0.143E-01-0.395E-02
CGA:  17    -0.118531246556E+04   -0.27257E-02   -0.27216E-02  2944   0.578E-01-0.791E-04
 gam= 1.183 trial= 0.136  step= 0.120 mean= 0.136
 gam= 0.356 g(H,U,f)=  0.109E-01 0.795E-02 0.181E-02 ort(H,U,f) = 0.790E-02-0.641E-02-0.161E-02
CGA:  18    -0.118531593829E+04   -0.34727E-02   -0.34702E-02  2944   0.206E-01-0.118E-03
 gam= 0.356 trial= 0.135  step= 0.198 mean= 0.135
 gam= 0.522 g(H,U,f)=  0.607E-02 0.360E-02 0.109E-02 ort(H,U,f) = 0.270E-02-0.209E-02-0.574E-03
CGA:  19    -0.118531797727E+04   -0.20390E-02   -0.20375E-02  2944   0.108E-01 0.409E-04
 gam= 0.522 trial= 0.138  step= 0.157 mean= 0.138
 gam= 1.281 g(H,U,f)=  0.448E-02 0.628E-02 0.301E-02 ort(H,U,f) = 0.353E-02-0.215E-02-0.133E-02
CGA:  20    -0.118531882125E+04   -0.84398E-03   -0.84318E-03  2944   0.138E-01 0.581E-04
 gam= 1.281 trial= 0.139  step= 0.096 mean= 0.139
 gam= 0.782 g(H,U,f)=  0.357E-02 0.595E-02 0.126E-02 ort(H,U,f) = 0.440E-02-0.364E-02-0.761E-03
CGA:  21    -0.118531948415E+04   -0.66289E-03   -0.66253E-03  2944   0.108E-01 0.292E-05
 gam= 0.782 trial= 0.137  step= 0.146 mean= 0.137
 gam= 0.428 g(H,U,f)=  0.243E-02 0.158E-02 0.591E-03 ort(H,U,f) = 0.158E-02-0.114E-02-0.417E-03
CGA:  22    -0.118532027152E+04   -0.78737E-03   -0.78721E-03  2944   0.461E-02 0.224E-04
 gam= 0.428 trial= 0.137  step= 0.177 mean= 0.137
 gam= 0.929 g(H,U,f)=  0.180E-02 0.175E-02 0.729E-03 ort(H,U,f) = 0.132E-02-0.850E-03-0.419E-03
CGA:  23    -0.118532068116E+04   -0.40964E-03   -0.40835E-03  2944   0.428E-02 0.503E-04
 gam= 0.929 trial= 0.139  step= 0.151 mean= 0.139
 gam= 1.160 g(H,U,f)=  0.155E-02 0.252E-02 0.890E-03 ort(H,U,f) = 0.142E-02-0.106E-02-0.339E-03
CGA:  24    -0.118532100835E+04   -0.32719E-03   -0.32704E-03  2944   0.496E-02 0.169E-04
 gam= 1.160 trial= 0.140  step= 0.094 mean= 0.140
 gam= 0.762 g(H,U,f)=  0.137E-02 0.177E-02 0.642E-03 ort(H,U,f) = 0.168E-02-0.121E-02-0.464E-03
CGA:  25    -0.118532124132E+04   -0.23297E-03   -0.23314E-03  2944   0.378E-02 0.200E-05
 gam= 0.762 trial= 0.138  step= 0.172 mean= 0.138
 gam= 0.411 g(H,U,f)=  0.990E-03 0.475E-03 0.873E-04 ort(H,U,f) = 0.553E-03-0.431E-03-0.107E-03
CGA:  26    -0.118532156595E+04   -0.32463E-03   -0.32431E-03  2944   0.155E-02 0.156E-04
 gam= 0.411 trial= 0.139  step= 0.268 mean= 0.139
 gam= 1.105 g(H,U,f)=  0.771E-03 0.704E-03 0.241E-03 ort(H,U,f) = 0.381E-03-0.315E-03-0.636E-04
CGA:  27    -0.118532177534E+04   -0.20939E-03   -0.20921E-03  2944   0.172E-02 0.274E-05
 gam= 1.105 trial= 0.146  step= 0.108 mean= 0.146
 gam= 1.246 g(H,U,f)=  0.668E-03 0.105E-02 0.423E-03 ort(H,U,f) = 0.671E-03-0.456E-03-0.213E-03
CGA:  28    -0.118532186847E+04   -0.93136E-04   -0.93220E-04  2944   0.214E-02 0.171E-05
 gam= 1.246 trial= 0.144  step= 0.129 mean= 0.144
 gam= 0.450 g(H,U,f)=  0.421E-03 0.394E-03 0.147E-03 ort(H,U,f) = 0.284E-03-0.190E-03-0.953E-04
CGA:  29    -0.118532200701E+04   -0.13854E-03   -0.13852E-03  2944   0.962E-03-0.156E-05
 gam= 0.450 trial= 0.143  step= 0.130 mean= 0.143
 gam= 0.528 g(H,U,f)=  0.316E-03 0.155E-03 0.369E-04 ort(H,U,f) = 0.204E-03-0.154E-03-0.490E-04
CGA:  30    -0.118532206948E+04   -0.62462E-04   -0.62468E-04  2944   0.508E-03 0.745E-06
 gam= 0.528 trial= 0.143  step= 0.274 mean= 0.143
 gam= 1.140 g(H,U,f)=  0.209E-03 0.311E-03 0.593E-04 ort(H,U,f) = 0.112E-03-0.100E-03-0.163E-04
CGA:  31    -0.118532213896E+04   -0.69489E-04   -0.69777E-04  2944   0.579E-03-0.438E-05
 gam= 1.140 trial= 0.149  step= 0.127 mean= 0.149
 gam= 0.000 g(H,U,f)=  0.134E-03 0.182E-03 0.959E-04 ort(H,U,f) = 0.919E-04-0.529E-04-0.396E-04
SDA:  32    -0.118532217554E+04   -0.36577E-04   -0.36578E-04  2944   0.412E-03-0.610E-06
 gam= 0.000 trial= 0.148  step= 0.055 mean= 0.148
 gam= 0.462 g(H,U,f)=  0.102E-03 0.658E-04 0.228E-04 ort(H,U,f) = 0.106E-03-0.634E-04-0.428E-04
CGA:  33    -0.118532218686E+04   -0.11322E-04   -0.11286E-04  2944   0.191E-03 0.180E-06
 gam= 0.462 trial= 0.143  step= 0.257 mean= 0.143
 gam= 1.039 g(H,U,f)=  0.684E-04 0.113E-03 0.168E-04 ort(H,U,f) = 0.668E-04-0.593E-04-0.697E-05
CGA:  34    -0.118532221138E+04   -0.24513E-04   -0.24482E-04  2944   0.198E-03 0.537E-06
 gam= 1.039 trial= 0.149  step= 0.227 mean= 0.149
 gam= 0.727 g(H,U,f)=  0.434E-04 0.751E-04 0.254E-04 ort(H,U,f) = 0.320E-04-0.228E-04-0.103E-04
CGA:  35    -0.118532223387E+04   -0.22491E-04   -0.22530E-04  2944   0.144E-03-0.101E-05
 gam= 0.727 trial= 0.153  step= 0.111 mean= 0.153
 gam= 0.700 g(H,U,f)=  0.330E-04 0.468E-04 0.210E-04 ort(H,U,f) = 0.275E-04-0.162E-04-0.113E-04
CGA:  36    -0.118532224183E+04   -0.79635E-05   -0.79669E-05  2944   0.101E-03 0.444E-07
 gam= 0.700 trial= 0.151  step= 0.089 mean= 0.151
 final diagonalization
   6 F= -.11853222E+04 E0= -.11853033E+04  d E =-.548967E-02  mag=   118.0000
quench:  g(F)=  0.000E+00 g(S)=  0.000E+00 dE (1.order)= 0.000E+00
 bond charge predicted
 wavefunctions rotated
       N       E                     dE             d eps       ncg     rms          ort
 gam= 0.000 g(H,U,f)=  0.392E+01 0.536E+00 0.210E+00 ort(H,U,f) = 0.000E+00 0.000E+00 0.000E+00
SDA:   1    -0.118384098700E+04    0.14812E+01    0.00000E+00  2944   0.466E+01 0.000E+00
 gam= 0.000 trial= 0.148  step= 0.190 mean= 0.148
 gam= 2.021 g(H,U,f)=  0.243E+01 0.394E+01 0.306E+01 ort(H,U,f) = 0.233E+01-0.101E+01-0.813E+00
CGA:   2    -0.118429839308E+04   -0.45741E+00   -0.44336E+00  2944   0.942E+01 0.511E+00
 gam= 2.021 trial= 0.150  step= 0.113 mean= 0.150
 gam= 0.459 g(H,U,f)=  0.143E+01 0.206E+01 0.841E+00 ort(H,U,f) = 0.213E+01-0.168E+01-0.733E+00
CGA:   3    -0.118491583834E+04   -0.61745E+00   -0.59120E+00  2944   0.433E+01-0.282E+00
 gam= 0.459 trial= 0.148  step= 0.107 mean= 0.148
 gam= 0.473 g(H,U,f)=  0.849E+00 0.838E+00 0.358E+00 ort(H,U,f) = 0.901E+00-0.654E+00-0.259E+00
CGA:   4    -0.118514013427E+04   -0.22430E+00   -0.22442E+00  2944   0.205E+01-0.121E-01
 gam= 0.473 trial= 0.146  step= 0.112 mean= 0.146
 gam= 0.724 g(H,U,f)=  0.478E+00 0.729E+00 0.274E+00 ort(H,U,f) = 0.668E+00-0.491E+00-0.186E+00
CGA:   5    -0.118525534016E+04   -0.11521E+00   -0.11467E+00  2944   0.148E+01-0.847E-02
 gam= 0.724 trial= 0.144  step= 0.102 mean= 0.144
 gam= 0.470 g(H,U,f)=  0.212E+00 0.324E+00 0.160E+00 ort(H,U,f) = 0.340E+00-0.207E+00-0.133E+00
CGA:   6    -0.118533003343E+04   -0.74693E-01   -0.75300E-01  2944   0.696E+00 0.297E-03
 gam= 0.470 trial= 0.142  step= 0.106 mean= 0.142
 gam= 0.458 g(H,U,f)=  0.105E+00 0.148E+00 0.659E-01 ort(H,U,f) = 0.153E+00-0.111E+00-0.464E-01
CGA:   7    -0.118536759950E+04   -0.37566E-01   -0.36978E-01  2944   0.319E+00-0.508E-02
 gam= 0.458 trial= 0.140  step= 0.086 mean= 0.140
 gam= 0.553 g(H,U,f)=  0.685E-01 0.746E-01 0.329E-01 ort(H,U,f) = 0.959E-01-0.623E-01-0.339E-01
CGA:   8    -0.118538116397E+04   -0.13564E-01   -0.13620E-01  2944   0.176E+00-0.323E-03
 gam= 0.553 trial= 0.138  step= 0.175 mean= 0.138
 gam= 0.702 g(H,U,f)=  0.239E-01 0.685E-01 0.311E-01 ort(H,U,f) = 0.336E-01-0.224E-01-0.125E-01
CGA:   9    -0.118539648346E+04   -0.15319E-01   -0.15354E-01  2944   0.124E+00-0.132E-02
 gam= 0.702 trial= 0.140  step= 0.066 mean= 0.140
 gam= 0.291 g(H,U,f)=  0.155E-01 0.148E-01 0.555E-02 ort(H,U,f) = 0.221E-01-0.136E-01-0.943E-02
CGA:  10    -0.118540050330E+04   -0.40198E-02   -0.40774E-02  2944   0.359E-01-0.961E-03
 gam= 0.291 trial= 0.136  step= 0.160 mean= 0.136
 gam= 1.026 g(H,U,f)=  0.896E-02 0.195E-01 0.838E-02 ort(H,U,f) = 0.991E-02-0.688E-02-0.329E-02
CGA:  11    -0.118540335813E+04   -0.28548E-02   -0.28597E-02  2944   0.369E-01-0.260E-03
 gam= 1.026 trial= 0.137  step= 0.103 mean= 0.137
 gam= 0.624 g(H,U,f)=  0.603E-02 0.121E-01 0.487E-02 ort(H,U,f) = 0.841E-02-0.455E-02-0.382E-02
CGA:  12    -0.118540523952E+04   -0.18814E-02   -0.18853E-02  2944   0.230E-01 0.429E-04
 gam= 0.624 trial= 0.135  step= 0.116 mean= 0.135
 gam= 0.543 g(H,U,f)=  0.385E-02 0.618E-02 0.248E-02 ort(H,U,f) = 0.399E-02-0.230E-02-0.174E-02
CGA:  13    -0.118540657532E+04   -0.13358E-02   -0.13342E-02  2944   0.125E-01-0.540E-04
 gam= 0.543 trial= 0.134  step= 0.112 mean= 0.134
 gam= 0.730 g(H,U,f)=  0.263E-02 0.431E-02 0.219E-02 ort(H,U,f) = 0.288E-02-0.151E-02-0.136E-02
CGA:  14    -0.118540727276E+04   -0.69744E-03   -0.69732E-03  2944   0.914E-02-0.620E-06
 gam= 0.730 trial= 0.133  step= 0.120 mean= 0.133
 gam= 0.794 g(H,U,f)=  0.200E-02 0.367E-02 0.159E-02 ort(H,U,f) = 0.206E-02-0.108E-02-0.988E-03
CGA:  15    -0.118540781995E+04   -0.54719E-03   -0.54706E-03  2944   0.725E-02-0.591E-05
 gam= 0.794 trial= 0.133  step= 0.127 mean= 0.133
 gam= 0.562 g(H,U,f)=  0.127E-02 0.202E-02 0.788E-03 ort(H,U,f) = 0.113E-02-0.598E-03-0.515E-03
CGA:  16    -0.118540828009E+04   -0.46014E-03   -0.46021E-03  2944   0.407E-02 0.185E-04
 gam= 0.562 trial= 0.132  step= 0.101 mean= 0.132
 gam= 0.790 g(H,U,f)=  0.948E-03 0.146E-02 0.806E-03 ort(H,U,f) = 0.101E-02-0.492E-03-0.512E-03
CGA:  17    -0.118540848598E+04   -0.20589E-03   -0.20583E-03  2944   0.322E-02 0.146E-05
 gam= 0.790 trial= 0.131  step= 0.141 mean= 0.131
 gam= 0.563 g(H,U,f)=  0.605E-03 0.823E-03 0.382E-03 ort(H,U,f) = 0.545E-03-0.267E-03-0.273E-03
CGA:  18    -0.118540871265E+04   -0.22667E-03   -0.22664E-03  2944   0.181E-02 0.464E-05
 gam= 0.563 trial= 0.131  step= 0.107 mean= 0.131
 gam= 0.900 g(H,U,f)=  0.467E-03 0.826E-03 0.337E-03 ort(H,U,f) = 0.533E-03-0.325E-03-0.208E-03
CGA:  19    -0.118540880977E+04   -0.97119E-04   -0.97087E-04  2944   0.163E-02-0.319E-06
 gam= 0.900 trial= 0.130  step= 0.136 mean= 0.130
 gam= 0.582 g(H,U,f)=  0.273E-03 0.470E-03 0.206E-03 ort(H,U,f) = 0.338E-03-0.216E-03-0.118E-03
CGA:  20    -0.118540892092E+04   -0.11116E-03   -0.11114E-03  2944   0.949E-03 0.399E-05
 gam= 0.582 trial= 0.130  step= 0.107 mean= 0.130
 gam= 0.664 g(H,U,f)=  0.191E-03 0.285E-03 0.154E-03 ort(H,U,f) = 0.253E-03-0.140E-03-0.115E-03
CGA:  21    -0.118540897162E+04   -0.50701E-04   -0.50669E-04  2944   0.630E-03-0.174E-05
 gam= 0.664 trial= 0.129  step= 0.109 mean= 0.129
 gam= 0.683 g(H,U,f)=  0.142E-03 0.224E-03 0.641E-04 ort(H,U,f) = 0.197E-03-0.146E-03-0.503E-04
CGA:  22    -0.118540900590E+04   -0.34275E-04   -0.34279E-04  2944   0.430E-03-0.109E-06
 gam= 0.683 trial= 0.128  step= 0.159 mean= 0.128
 gam= 0.953 g(H,U,f)=  0.975E-04 0.209E-03 0.104E-03 ort(H,U,f) = 0.131E-03-0.944E-04-0.377E-04
CGA:  23    -0.118540904004E+04   -0.34139E-04   -0.34153E-04  2944   0.410E-03-0.809E-06
 gam= 0.953 trial= 0.130  step= 0.094 mean= 0.130
 gam= 0.522 g(H,U,f)=  0.741E-04 0.923E-04 0.475E-04 ort(H,U,f) = 0.111E-03-0.681E-04-0.430E-04
CGA:  24    -0.118540905915E+04   -0.19115E-04   -0.19129E-04  2944   0.214E-03 0.412E-06
 gam= 0.522 trial= 0.128  step= 0.134 mean= 0.128
 gam= 0.818 g(H,U,f)=  0.588E-04 0.813E-04 0.349E-04 ort(H,U,f) = 0.734E-04-0.520E-04-0.217E-04
CGA:  25    -0.118540907348E+04   -0.14330E-04   -0.14331E-04  2944   0.175E-03-0.296E-06
 gam= 0.818 trial= 0.128  step= 0.132 mean= 0.128
 gam= 1.018 g(H,U,f)=  0.503E-04 0.898E-04 0.380E-04 ort(H,U,f) = 0.645E-04-0.453E-04-0.177E-04
CGA:  26    -0.118540908503E+04   -0.11554E-04   -0.11550E-04  2944   0.178E-03 0.151E-05
 gam= 1.018 trial= 0.128  step= 0.123 mean= 0.128
 gam= 0.670 g(H,U,f)=  0.369E-04 0.529E-04 0.294E-04 ort(H,U,f) = 0.519E-04-0.327E-04-0.178E-04
CGA:  27    -0.118540909611E+04   -0.11075E-04   -0.11078E-04  2944   0.119E-03 0.138E-05
 gam= 0.670 trial= 0.128  step= 0.121 mean= 0.128
 gam= 0.684 g(H,U,f)=  0.293E-04 0.354E-04 0.170E-04 ort(H,U,f) = 0.358E-04-0.226E-04-0.120E-04
CGA:  28    -0.118540910336E+04   -0.72492E-05   -0.72529E-05  2944   0.816E-04 0.117E-05
 gam= 0.684 trial= 0.128  step= 0.118 mean= 0.128
 final diagonalization
   7 F= -.11854091E+04 E0= -.11853900E+04  d E =-.868615E-01  mag=   118.0000
quench:  g(F)=  0.000E+00 g(S)=  0.000E+00 dE (1.order)= 0.000E+00
 bond charge predicted
 wavefunctions rotated
       N       E                     dE             d eps       ncg     rms          ort
 gam= 0.000 g(H,U,f)=  0.108E+01 0.149E+00 0.778E-01 ort(H,U,f) = 0.000E+00 0.000E+00 0.000E+00
SDA:   1    -0.118502021940E+04    0.38888E+00    0.00000E+00  2944   0.130E+01 0.000E+00
 gam= 0.000 trial= 0.127  step= 0.158 mean= 0.127
 gam= 2.528 g(H,U,f)=  0.720E+00 0.195E+01 0.627E+00 ort(H,U,f) = 0.695E+00-0.552E+00-0.165E+00
CGA:   2    -0.118512285423E+04   -0.10263E+00   -0.10319E+00  2944   0.329E+01-0.226E-01
 gam= 2.528 trial= 0.129  step= 0.114 mean= 0.129
 gam= 0.226 g(H,U,f)=  0.417E+00 0.253E+00 0.754E-01 ort(H,U,f) = 0.199E+00-0.157E+00-0.452E-01
CGA:   3    -0.118530725410E+04   -0.18440E+00   -0.18435E+00  2944   0.745E+00-0.280E-02
 gam= 0.226 trial= 0.128  step= 0.131 mean= 0.128
 gam= 0.643 g(H,U,f)=  0.238E+00 0.174E+00 0.672E-01 ort(H,U,f) = 0.210E+00-0.133E+00-0.603E-01
CGA:   4    -0.118535600739E+04   -0.48753E-01   -0.48709E-01  2944   0.479E+00 0.165E-01
 gam= 0.643 trial= 0.128  step= 0.140 mean= 0.128
 gam= 1.051 g(H,U,f)=  0.996E-01 0.284E+00 0.120E+00 ort(H,U,f) = 0.128E+00-0.990E-01-0.333E-01
CGA:   5    -0.118539029321E+04   -0.34286E-01   -0.34328E-01  2944   0.504E+00-0.412E-02
 gam= 1.051 trial= 0.129  step= 0.065 mean= 0.129
 gam= 0.277 g(H,U,f)=  0.619E-01 0.636E-01 0.142E-01 ort(H,U,f) = 0.681E-01-0.463E-01-0.230E-01
CGA:   6    -0.118540642343E+04   -0.16130E-01   -0.16209E-01  2944   0.140E+00-0.126E-02
 gam= 0.277 trial= 0.126  step= 0.133 mean= 0.126
 gam= 0.409 g(H,U,f)=  0.313E-01 0.228E-01 0.306E-02 ort(H,U,f) = 0.287E-01-0.231E-01-0.360E-02
CGA:   7    -0.118541574092E+04   -0.93175E-02   -0.93033E-02  2944   0.571E-01 0.205E-02
 gam= 0.409 trial= 0.126  step= 0.198 mean= 0.126
 gam= 0.996 g(H,U,f)=  0.106E-01 0.322E-01 0.141E-01 ort(H,U,f) = 0.914E-02-0.639E-02-0.320E-02
CGA:   8    -0.118542144897E+04   -0.57080E-02   -0.57273E-02  2944   0.569E-01-0.458E-03
 gam= 0.996 trial= 0.130  step= 0.055 mean= 0.130
 gam= 0.267 g(H,U,f)=  0.670E-02 0.700E-02 0.147E-02 ort(H,U,f) = 0.681E-02-0.446E-02-0.261E-02
CGA:   9    -0.118542299102E+04   -0.15420E-02   -0.15543E-02  2944   0.152E-01-0.259E-03
 gam= 0.267 trial= 0.126  step= 0.148 mean= 0.126
 gam= 0.573 g(H,U,f)=  0.366E-02 0.426E-02 0.781E-03 ort(H,U,f) = 0.295E-02-0.231E-02-0.684E-03
CGA:  10    -0.118542410555E+04   -0.11145E-02   -0.11153E-02  2944   0.870E-02-0.429E-04
 gam= 0.573 trial= 0.127  step= 0.187 mean= 0.127
 gam= 0.714 g(H,U,f)=  0.197E-02 0.325E-02 0.994E-03 ort(H,U,f) = 0.128E-02-0.917E-03-0.370E-03
CGA:  11    -0.118542491550E+04   -0.80994E-03   -0.81000E-03  2944   0.621E-02-0.303E-05
 gam= 0.714 trial= 0.130  step= 0.098 mean= 0.130
 gam= 0.880 g(H,U,f)=  0.134E-02 0.299E-02 0.114E-02 ort(H,U,f) = 0.122E-02-0.584E-03-0.632E-03
CGA:  12    -0.118542521957E+04   -0.30407E-03   -0.30436E-03  2944   0.547E-02 0.319E-05
 gam= 0.880 trial= 0.128  step= 0.090 mean= 0.128
 gam= 0.435 g(H,U,f)=  0.931E-03 0.105E-02 0.402E-03 ort(H,U,f) = 0.787E-03-0.398E-03-0.390E-03
CGA:  13    -0.118542546587E+04   -0.24630E-03   -0.24631E-03  2944   0.238E-02-0.175E-05
 gam= 0.435 trial= 0.126  step= 0.178 mean= 0.126
 gam= 0.550 g(H,U,f)=  0.551E-03 0.591E-03 0.167E-03 ort(H,U,f) = 0.268E-03-0.123E-03-0.151E-03
CGA:  14    -0.118542567723E+04   -0.21136E-03   -0.21155E-03  2944   0.131E-02-0.678E-05
 gam= 0.550 trial= 0.129  step= 0.201 mean= 0.129
 gam= 1.019 g(H,U,f)=  0.356E-03 0.732E-03 0.246E-03 ort(H,U,f) = 0.181E-03-0.118E-03-0.622E-04
CGA:  15    -0.118542580841E+04   -0.13117E-03   -0.13113E-03  2944   0.133E-02 0.102E-05
 gam= 1.019 trial= 0.133  step= 0.073 mean= 0.133
 gam= 0.660 g(H,U,f)=  0.283E-03 0.431E-03 0.166E-03 ort(H,U,f) = 0.275E-03-0.112E-03-0.162E-03
CGA:  16    -0.118542585718E+04   -0.48776E-04   -0.48754E-04  2944   0.880E-03 0.325E-06
 gam= 0.660 trial= 0.130  step= 0.161 mean= 0.130
 gam= 0.434 g(H,U,f)=  0.178E-03 0.172E-03 0.314E-04 ort(H,U,f) = 0.107E-03-0.850E-04-0.186E-04
CGA:  17    -0.118542592797E+04   -0.70786E-04   -0.70739E-04  2944   0.382E-03 0.312E-05
 gam= 0.434 trial= 0.131  step= 0.171 mean= 0.131
 gam= 0.937 g(H,U,f)=  0.133E-03 0.171E-03 0.538E-04 ort(H,U,f) = 0.109E-03-0.733E-04-0.309E-04
CGA:  18    -0.118542596090E+04   -0.32932E-04   -0.32836E-04  2944   0.358E-03 0.453E-05
 gam= 0.937 trial= 0.133  step= 0.178 mean= 0.133
 gam= 1.062 g(H,U,f)=  0.771E-04 0.205E-03 0.977E-04 ort(H,U,f) = 0.765E-04-0.508E-04-0.245E-04
CGA:  19    -0.118542599317E+04   -0.32272E-04   -0.32247E-04  2944   0.380E-03 0.122E-05
 gam= 1.062 trial= 0.135  step= 0.059 mean= 0.135
 gam= 0.302 g(H,U,f)=  0.595E-04 0.428E-04 0.124E-04 ort(H,U,f) = 0.808E-04-0.565E-04-0.237E-04
CGA:  20    -0.118542600446E+04   -0.11286E-04   -0.11317E-04  2944   0.115E-03 0.605E-06
 gam= 0.302 trial= 0.132  step= 0.247 mean= 0.132
 gam= 0.807 g(H,U,f)=  0.390E-04 0.442E-04 0.939E-05 ort(H,U,f) = 0.312E-04-0.253E-04-0.558E-05
CGA:  21    -0.118542601868E+04   -0.14226E-04   -0.14204E-04  2944   0.926E-04 0.371E-06
 gam= 0.807 trial= 0.137  step= 0.204 mean= 0.137
 gam= 0.896 g(H,U,f)=  0.261E-04 0.438E-04 0.131E-04 ort(H,U,f) = 0.229E-04-0.203E-04-0.436E-05
CGA:  22    -0.118542602811E+04   -0.94273E-05   -0.94846E-05  2944   0.830E-04-0.172E-05
 gam= 0.896 trial= 0.141  step= 0.100 mean= 0.141
 final diagonalization
   8 F= -.11854260E+04 E0= -.11854068E+04  d E =-.169248E-01  mag=   118.0000
quench:  g(F)=  0.000E+00 g(S)=  0.000E+00 dE (1.order)= 0.000E+00
 bond charge predicted
 wavefunctions rotated
       N       E                     dE             d eps       ncg     rms          ort
 gam= 0.000 g(H,U,f)=  0.235E+01 0.163E+01 0.558E+00 ort(H,U,f) = 0.000E+00 0.000E+00 0.000E+00
SDA:   1    -0.118460118087E+04    0.82484E+00    0.00000E+00  2944   0.453E+01 0.000E+00
 gam= 0.000 trial= 0.139  step= 0.071 mean= 0.139
 gam= 0.845 g(H,U,f)=  0.171E+01 0.130E+01 0.824E+00 ort(H,U,f) = 0.175E+01-0.120E+01-0.809E+00
CGA:   2    -0.118474558359E+04   -0.14440E+00   -0.16014E+00  2944   0.383E+01-0.262E+00
 gam= 0.845 trial= 0.135  step= 0.252 mean= 0.135
 gam= 0.411 g(H,U,f)=  0.894E+00 0.528E+00 0.153E+00 ort(H,U,f) = 0.189E+00-0.213E+00-0.693E-01
CGA:   3    -0.118519541960E+04   -0.44984E+00   -0.45536E+00  2944   0.158E+01-0.927E-01
 gam= 0.411 trial= 0.141  step= 0.118 mean= 0.141
 gam= 0.863 g(H,U,f)=  0.518E+00 0.604E+00 0.237E+00 ort(H,U,f) = 0.510E+00-0.376E+00-0.116E+00
CGA:   4    -0.118528529153E+04   -0.89872E-01   -0.90563E-01  2944   0.136E+01 0.171E-01
 gam= 0.863 trial= 0.140  step= 0.108 mean= 0.140
 gam= 0.818 g(H,U,f)=  0.252E+00 0.685E+00 0.176E+00 ort(H,U,f) = 0.442E+00-0.350E+00-0.992E-01
CGA:   5    -0.118535987717E+04   -0.74586E-01   -0.74075E-01  2944   0.111E+01-0.704E-02
 gam= 0.818 trial= 0.138  step= 0.087 mean= 0.138
 gam= 0.175 g(H,U,f)=  0.115E+00 0.617E-01 0.180E-01 ort(H,U,f) = 0.118E+00-0.837E-01-0.366E-01
CGA:   6    -0.118540747888E+04   -0.47602E-01   -0.48066E-01  2944   0.194E+00-0.264E-02
 gam= 0.175 trial= 0.136  step= 0.186 mean= 0.136
 gam= 0.955 g(H,U,f)=  0.531E-01 0.984E-01 0.338E-01 ort(H,U,f) = 0.544E-01-0.435E-01-0.127E-01
CGA:   7    -0.118542540168E+04   -0.17923E-01   -0.17980E-01  2944   0.185E+00-0.174E-02
 gam= 0.955 trial= 0.138  step= 0.079 mean= 0.138
 gam= 0.622 g(H,U,f)=  0.308E-01 0.593E-01 0.252E-01 ort(H,U,f) = 0.511E-01-0.333E-01-0.183E-01
CGA:   8    -0.118543264306E+04   -0.72414E-02   -0.72991E-02  2944   0.115E+00-0.462E-03
 gam= 0.622 trial= 0.135  step= 0.116 mean= 0.135
 gam= 0.207 g(H,U,f)=  0.110E-01 0.919E-02 0.370E-02 ort(H,U,f) = 0.123E-01-0.652E-02-0.550E-02
CGA:   9    -0.118543931098E+04   -0.66679E-02   -0.66757E-02  2944   0.239E-01 0.290E-03
 gam= 0.207 trial= 0.134  step= 0.132 mean= 0.134
 gam= 0.873 g(H,U,f)=  0.689E-02 0.107E-01 0.324E-02 ort(H,U,f) = 0.716E-02-0.516E-02-0.197E-02
CGA:  10    -0.118544088884E+04   -0.15779E-02   -0.15779E-02  2944   0.208E-01 0.307E-04
 gam= 0.873 trial= 0.134  step= 0.115 mean= 0.134
 gam= 1.033 g(H,U,f)=  0.422E-02 0.124E-01 0.491E-02 ort(H,U,f) = 0.601E-02-0.386E-02-0.219E-02
CGA:  11    -0.118544209258E+04   -0.12037E-02   -0.12029E-02  2944   0.215E-01-0.321E-04
 gam= 1.033 trial= 0.133  step= 0.099 mean= 0.133
 gam= 0.231 g(H,U,f)=  0.224E-02 0.232E-02 0.411E-03 ort(H,U,f) = 0.197E-02-0.120E-02-0.749E-03
CGA:  12    -0.118544315676E+04   -0.10642E-02   -0.10660E-02  2944   0.497E-02 0.220E-04
 gam= 0.231 trial= 0.132  step= 0.186 mean= 0.132
 gam= 0.961 g(H,U,f)=  0.143E-02 0.256E-02 0.791E-03 ort(H,U,f) = 0.984E-03-0.719E-03-0.287E-03
CGA:  13    -0.118544361960E+04   -0.46284E-03   -0.46359E-03  2944   0.478E-02-0.227E-04
 gam= 0.961 trial= 0.134  step= 0.094 mean= 0.134
 gam= 0.906 g(H,U,f)=  0.106E-02 0.250E-02 0.767E-03 ort(H,U,f) = 0.123E-02-0.739E-03-0.488E-03
CGA:  14    -0.118544384354E+04   -0.22394E-03   -0.22420E-03  2944   0.433E-02 0.140E-05
 gam= 0.906 trial= 0.132  step= 0.136 mean= 0.132
 gam= 0.448 g(H,U,f)=  0.671E-03 0.907E-03 0.363E-03 ort(H,U,f) = 0.494E-03-0.255E-03-0.241E-03
CGA:  15    -0.118544413740E+04   -0.29386E-03   -0.29386E-03  2944   0.194E-02-0.198E-05
 gam= 0.448 trial= 0.133  step= 0.147 mean= 0.133
 gam= 0.711 g(H,U,f)=  0.469E-03 0.643E-03 0.268E-03 ort(H,U,f) = 0.308E-03-0.114E-03-0.198E-03
CGA:  16    -0.118544427947E+04   -0.14207E-03   -0.14212E-03  2944   0.138E-02-0.353E-05
 gam= 0.711 trial= 0.133  step= 0.111 mean= 0.133
 gam= 1.081 g(H,U,f)=  0.372E-03 0.806E-03 0.314E-03 ort(H,U,f) = 0.404E-03-0.270E-03-0.131E-03
CGA:  17    -0.118544435607E+04   -0.76604E-04   -0.76645E-04  2944   0.149E-02 0.341E-05
 gam= 1.081 trial= 0.132  step= 0.117 mean= 0.132
 gam= 0.530 g(H,U,f)=  0.281E-03 0.402E-03 0.107E-03 ort(H,U,f) = 0.333E-03-0.212E-03-0.113E-03
CGA:  18    -0.118544444326E+04   -0.87189E-04   -0.87258E-04  2944   0.790E-03 0.772E-05
 gam= 0.530 trial= 0.131  step= 0.194 mean= 0.131
 gam= 0.669 g(H,U,f)=  0.174E-03 0.256E-03 0.979E-04 ort(H,U,f) = 0.149E-03-0.105E-03-0.420E-04
CGA:  19    -0.118544452030E+04   -0.77044E-04   -0.76983E-04  2944   0.528E-03 0.191E-05
 gam= 0.669 trial= 0.134  step= 0.087 mean= 0.134
 gam= 0.817 g(H,U,f)=  0.136E-03 0.218E-03 0.780E-04 ort(H,U,f) = 0.174E-03-0.117E-03-0.555E-04
CGA:  20    -0.118544454328E+04   -0.22979E-04   -0.23019E-04  2944   0.432E-03 0.133E-05
 gam= 0.817 trial= 0.132  step= 0.139 mean= 0.132
 gam= 0.644 g(H,U,f)=  0.102E-03 0.140E-03 0.356E-04 ort(H,U,f) = 0.138E-03-0.112E-03-0.262E-04
CGA:  21    -0.118544457341E+04   -0.30128E-04   -0.30125E-04  2944   0.278E-03 0.616E-06
 gam= 0.644 trial= 0.132  step= 0.182 mean= 0.132
 gam= 0.821 g(H,U,f)=  0.649E-04 0.117E-03 0.458E-04 ort(H,U,f) = 0.738E-04-0.565E-04-0.182E-04
CGA:  22    -0.118544459866E+04   -0.25253E-04   -0.25273E-04  2944   0.228E-03-0.962E-06
 gam= 0.821 trial= 0.135  step= 0.097 mean= 0.135
 gam= 0.747 g(H,U,f)=  0.459E-04 0.874E-04 0.372E-04 ort(H,U,f) = 0.705E-04-0.487E-04-0.224E-04
CGA:  23    -0.118544460973E+04   -0.11068E-04   -0.11057E-04  2944   0.170E-03-0.661E-06
 gam= 0.747 trial= 0.133  step= 0.096 mean= 0.133
 gam= 0.488 g(H,U,f)=  0.367E-04 0.358E-04 0.108E-04 ort(H,U,f) = 0.535E-04-0.401E-04-0.132E-04
CGA:  24    -0.118544461788E+04   -0.81503E-05   -0.81582E-05  2944   0.833E-04 0.219E-06
 gam= 0.488 trial= 0.131  step= 0.269 mean= 0.131
 gam= 1.055 g(H,U,f)=  0.242E-04 0.486E-04 0.150E-04 ort(H,U,f) = 0.199E-04-0.162E-04-0.434E-05
CGA:  25    -0.118544462907E+04   -0.11184E-04   -0.11221E-04  2944   0.879E-04-0.602E-06
 gam= 1.055 trial= 0.138  step= 0.089 mean= 0.138
 gam= 0.783 g(H,U,f)=  0.201E-04 0.338E-04 0.149E-04 ort(H,U,f) = 0.257E-04-0.164E-04-0.909E-05
CGA:  26    -0.118544463296E+04   -0.38919E-05   -0.38963E-05  2944   0.688E-04 0.118E-06
 gam= 0.783 trial= 0.136  step= 0.125 mean= 0.136
 final diagonalization
   9 F= -.11854446E+04 E0= -.11854252E+04  d E =-.186048E-01  mag=   118.0000
quench:  g(F)=  0.000E+00 g(S)=  0.000E+00 dE (1.order)= 0.000E+00
 bond charge predicted
 wavefunctions rotated
       N       E                     dE             d eps       ncg     rms          ort
 gam= 0.000 g(H,U,f)=  0.839E+01 0.205E+01 0.489E+00 ort(H,U,f) = 0.000E+00 0.000E+00 0.000E+00
SDA:   1    -0.118251201109E+04    0.29326E+01    0.00000E+00  2944   0.109E+02 0.000E+00
 gam= 0.000 trial= 0.135  step= 0.133 mean= 0.135
 gam= 1.520 g(H,U,f)=  0.519E+01 0.648E+01 0.494E+01 ort(H,U,f) = 0.535E+01-0.239E+01-0.203E+01
CGA:   2    -0.118323836971E+04   -0.72636E+00   -0.72808E+00  2944   0.166E+02 0.921E+00
 gam= 1.520 trial= 0.135  step= 0.128 mean= 0.135
 gam= 0.592 g(H,U,f)=  0.314E+01 0.440E+01 0.230E+01 ort(H,U,f) = 0.315E+01-0.268E+01-0.152E+01
CGA:   3    -0.118440167217E+04   -0.11633E+01   -0.11556E+01  2944   0.984E+01-0.105E+01
 gam= 0.592 trial= 0.135  step= 0.095 mean= 0.135
 gam= 0.379 g(H,U,f)=  0.222E+01 0.107E+01 0.440E+00 ort(H,U,f) = 0.165E+01-0.126E+01-0.428E+00
CGA:   4    -0.118483440107E+04   -0.43273E+00   -0.43621E+00  2944   0.373E+01-0.385E-01
 gam= 0.379 trial= 0.133  step= 0.156 mean= 0.133
 gam= 1.325 g(H,U,f)=  0.112E+01 0.300E+01 0.824E+00 ort(H,U,f) = 0.136E+01-0.109E+01-0.318E+00
CGA:   5    -0.118512284041E+04   -0.28844E+00   -0.28942E+00  2944   0.494E+01-0.499E-01
 gam= 1.325 trial= 0.134  step= 0.079 mean= 0.134
 gam= 0.211 g(H,U,f)=  0.486E+00 0.449E+00 0.108E+00 ort(H,U,f) = 0.628E+00-0.465E+00-0.190E+00
CGA:   6    -0.118531415697E+04   -0.19132E+00   -0.19244E+00  2944   0.104E+01-0.274E-01
 gam= 0.211 trial= 0.131  step= 0.126 mean= 0.131
 gam= 0.819 g(H,U,f)=  0.254E+00 0.438E+00 0.163E+00 ort(H,U,f) = 0.290E+00-0.239E+00-0.741E-01
CGA:   7    -0.118537965624E+04   -0.65499E-01   -0.65374E-01  2944   0.855E+00-0.226E-01
 gam= 0.819 trial= 0.131  step= 0.081 mean= 0.131
 gam= 0.469 g(H,U,f)=  0.155E+00 0.184E+00 0.618E-01 ort(H,U,f) = 0.232E+00-0.163E+00-0.705E-01
CGA:   8    -0.118541319601E+04   -0.33540E-01   -0.33703E-01  2944   0.401E+00-0.109E-02
 gam= 0.469 trial= 0.128  step= 0.164 mean= 0.128
 gam= 0.434 g(H,U,f)=  0.477E-01 0.927E-01 0.334E-01 ort(H,U,f) = 0.521E-01-0.357E-01-0.170E-01
CGA:   9    -0.118544594743E+04   -0.32751E-01   -0.32767E-01  2944   0.174E+00-0.632E-03
 gam= 0.434 trial= 0.130  step= 0.062 mean= 0.130
 gam= 0.423 g(H,U,f)=  0.349E-01 0.307E-01 0.798E-02 ort(H,U,f) = 0.423E-01-0.310E-01-0.127E-01
CGA:  10    -0.118545125835E+04   -0.53109E-02   -0.53904E-02  2944   0.736E-01-0.141E-02
 gam= 0.423 trial= 0.127  step= 0.204 mean= 0.127
 gam= 0.905 g(H,U,f)=  0.168E-01 0.403E-01 0.949E-02 ort(H,U,f) = 0.156E-01-0.133E-01-0.279E-02
CGA:  11    -0.118545869767E+04   -0.74393E-02   -0.74600E-02  2944   0.666E-01-0.468E-03
 gam= 0.905 trial= 0.131  step= 0.087 mean= 0.131
 gam= 0.617 g(H,U,f)=  0.111E-01 0.221E-01 0.781E-02 ort(H,U,f) = 0.138E-01-0.747E-02-0.628E-02
CGA:  12    -0.118546157102E+04   -0.28734E-02   -0.28820E-02  2944   0.411E-01 0.319E-05
 gam= 0.617 trial= 0.128  step= 0.104 mean= 0.128
 gam= 0.408 g(H,U,f)=  0.700E-02 0.778E-02 0.200E-02 ort(H,U,f) = 0.668E-02-0.483E-02-0.193E-02
CGA:  13    -0.118546371674E+04   -0.21457E-02   -0.21423E-02  2944   0.168E-01-0.783E-04
 gam= 0.408 trial= 0.127  step= 0.137 mean= 0.127
[...]
CGA:   8    -0.118555726474E+04   -0.11626E-02   -0.11620E-02  2944   0.665E-02 0.121E-04
 gam= 0.673 trial= 0.140  step= 0.071 mean= 0.140
 gam= 0.646 g(H,U,f)=  0.127E-02 0.255E-02 0.484E-03 ort(H,U,f) = 0.156E-02-0.112E-02-0.436E-03
CGA:   9    -0.118555750026E+04   -0.23552E-03   -0.23565E-03  2944   0.430E-02 0.326E-05
 gam= 0.646 trial= 0.136  step= 0.114 mean= 0.136
 gam= 0.303 g(H,U,f)=  0.635E-03 0.606E-03 0.617E-04 ort(H,U,f) = 0.566E-03-0.482E-03-0.876E-04
CGA:  10    -0.118555774646E+04   -0.24620E-03   -0.24597E-03  2944   0.130E-02-0.399E-05
 gam= 0.303 trial= 0.135  step= 0.209 mean= 0.135
 gam= 0.740 g(H,U,f)=  0.356E-03 0.522E-03 0.870E-04 ort(H,U,f) = 0.220E-03-0.179E-03-0.331E-04
CGA:  11    -0.118555788251E+04   -0.13605E-03   -0.13574E-03  2944   0.965E-03 0.778E-05
 gam= 0.740 trial= 0.139  step= 0.112 mean= 0.139
 gam= 1.259 g(H,U,f)=  0.250E-03 0.767E-03 0.198E-03 ort(H,U,f) = 0.252E-03-0.160E-03-0.925E-04
CGA:  12    -0.118555793667E+04   -0.54154E-04   -0.54157E-04  2944   0.121E-02 0.270E-06
 gam= 1.259 trial= 0.137  step= 0.096 mean= 0.137
 gam= 0.299 g(H,U,f)=  0.148E-03 0.205E-03 0.107E-04 ort(H,U,f) = 0.108E-03-0.918E-04-0.156E-04
CGA:  13    -0.118555799504E+04   -0.58376E-04   -0.58422E-04  2944   0.363E-03 0.652E-06
 gam= 0.299 trial= 0.135  step= 0.180 mean= 0.135
 gam= 0.597 g(H,U,f)=  0.995E-04 0.106E-03 0.112E-04 ort(H,U,f) = 0.481E-04-0.431E-04-0.508E-05
CGA:  14    -0.118555802776E+04   -0.32716E-04   -0.32717E-04  2944   0.217E-03-0.110E-06
 gam= 0.597 trial= 0.138  step= 0.184 mean= 0.138
 gam= 1.882 g(H,U,f)=  0.677E-04 0.263E-03 0.775E-04 ort(H,U,f) = 0.528E-04-0.360E-04-0.184E-04
CGA:  15    -0.118555804762E+04   -0.19864E-04   -0.19900E-04  2944   0.408E-03-0.163E-05
 gam= 1.882 trial= 0.140  step= 0.076 mean= 0.140
 gam= 0.330 g(H,U,f)=  0.504E-04 0.678E-04 0.165E-04 ort(H,U,f) = 0.428E-04-0.275E-04-0.166E-04
CGA:  16    -0.118555806312E+04   -0.15502E-04   -0.15456E-04  2944   0.135E-03-0.136E-05
 gam= 0.330 trial= 0.137  step= 0.135 mean= 0.137
 gam= 0.600 g(H,U,f)=  0.359E-04 0.359E-04 0.903E-05 ort(H,U,f) = 0.257E-04-0.171E-04-0.792E-05
CGA:  17    -0.118555807218E+04   -0.90560E-05   -0.90567E-05  2944   0.808E-04 0.645E-06
 gam= 0.600 trial= 0.137  step= 0.207 mean= 0.137
 final diagonalization
  26 F= -.11855581E+04 E0= -.11855380E+04  d E =-.245721E-02  mag=   118.0000
quench:  g(F)=  0.000E+00 g(S)=  0.000E+00 dE (1.order)= 0.000E+00
 bond charge predicted
 wavefunctions rotated
       N       E                     dE             d eps       ncg     rms          ort
 gam= 0.000 g(H,U,f)=  0.228E-01 0.370E-01 0.103E-01 ort(H,U,f) = 0.000E+00 0.000E+00 0.000E+00
SDA:   1    -0.118554951700E+04    0.85461E-02    0.00000E+00  2944   0.700E-01 0.000E+00
 gam= 0.000 trial= 0.140  step= 0.050 mean= 0.140
 gam= 0.429 g(H,U,f)=  0.176E-01 0.100E-01 0.243E-02 ort(H,U,f) = 0.173E-01-0.130E-01-0.415E-02
CGA:   2    -0.118555129004E+04   -0.17730E-02   -0.17672E-02  2944   0.301E-01 0.144E-03
 gam= 0.429 trial= 0.136  step= 0.211 mean= 0.136
 gam= 0.862 g(H,U,f)=  0.963E-02 0.143E-01 0.206E-02 ort(H,U,f) = 0.945E-02-0.819E-02-0.100E-02
CGA:   3    -0.118555448382E+04   -0.31938E-02   -0.31826E-02  2944   0.259E-01 0.252E-03
 gam= 0.862 trial= 0.139  step= 0.172 mean= 0.139
 gam= 0.407 g(H,U,f)=  0.486E-02 0.454E-02 0.114E-02 ort(H,U,f) = 0.320E-02-0.240E-02-0.713E-03
CGA:   4    -0.118555673389E+04   -0.22501E-02   -0.22482E-02  2944   0.105E-01 0.776E-04
 gam= 0.407 trial= 0.141  step= 0.122 mean= 0.141
 gam= 0.660 g(H,U,f)=  0.270E-02 0.336E-02 0.893E-03 ort(H,U,f) = 0.268E-02-0.219E-02-0.506E-03
CGA:   5    -0.118555738143E+04   -0.64753E-03   -0.64728E-03  2944   0.696E-02-0.126E-04
 gam= 0.660 trial= 0.140  step= 0.084 mean= 0.140
 gam= 0.820 g(H,U,f)=  0.163E-02 0.333E-02 0.746E-03 ort(H,U,f) = 0.238E-02-0.181E-02-0.576E-03
CGA:   6    -0.118555767319E+04   -0.29176E-03   -0.29192E-03  2944   0.571E-02 0.548E-06
 gam= 0.820 trial= 0.137  step= 0.115 mean= 0.137
 gam= 0.255 g(H,U,f)=  0.655E-03 0.751E-03 0.512E-04 ort(H,U,f) = 0.799E-03-0.737E-03-0.585E-04
CGA:   7    -0.118555800011E+04   -0.32692E-03   -0.32696E-03  2944   0.146E-02 0.358E-05
 gam= 0.255 trial= 0.136  step= 0.174 mean= 0.136
 gam= 0.296 g(H,U,f)=  0.268E-03 0.149E-03 0.143E-04 ort(H,U,f) = 0.198E-03-0.179E-03-0.172E-04
CGA:   8    -0.118555812737E+04   -0.12725E-03   -0.12720E-03  2944   0.431E-03 0.243E-05
 gam= 0.296 trial= 0.138  step= 0.260 mean= 0.138
 gam= 0.604 g(H,U,f)=  0.999E-04 0.137E-03 0.230E-04 ort(H,U,f) = 0.703E-04-0.563E-04-0.107E-04
CGA:   9    -0.118555818369E+04   -0.56319E-04   -0.56119E-04  2944   0.260E-03 0.328E-05
 gam= 0.604 trial= 0.144  step= 0.162 mean= 0.144
 gam= 0.459 g(H,U,f)=  0.504E-04 0.592E-04 0.986E-05 ort(H,U,f) = 0.352E-04-0.266E-04-0.785E-05
CGA:  10    -0.118555820491E+04   -0.21223E-04   -0.21217E-04  2944   0.120E-03 0.711E-06
 gam= 0.459 trial= 0.145  step= 0.119 mean= 0.145
 gam= 1.175 g(H,U,f)=  0.360E-04 0.846E-04 0.199E-04 ort(H,U,f) = 0.350E-04-0.263E-04-0.821E-05
CGA:  11    -0.118555821202E+04   -0.71090E-05   -0.71148E-05  2944   0.140E-03 0.475E-06
 gam= 1.175 trial= 0.144  step= 0.088 mean= 0.144
 final diagonalization
  27 F= -.11855582E+04 E0= -.11855381E+04  d E =-.139840E-03  mag=   118.0000
quench:  g(F)=  0.000E+00 g(S)=  0.000E+00 dE (1.order)= 0.000E+00
 bond charge predicted
 wavefunctions rotated
       N       E                     dE             d eps       ncg     rms          ort
 gam= 0.000 g(H,U,f)=  0.184E+01 0.182E+01 0.523E+00 ort(H,U,f) = 0.000E+00 0.000E+00 0.000E+00
SDA:   1    -0.118487847023E+04    0.67973E+00    0.00000E+00  2944   0.418E+01 0.000E+00
 gam= 0.000 trial= 0.141  step= 0.056 mean= 0.141
 gam= 0.585 g(H,U,f)=  0.138E+01 0.824E+00 0.241E+00 ort(H,U,f) = 0.141E+01-0.111E+01-0.390E+00
CGA:   2    -0.118499455870E+04   -0.11609E+00   -0.11690E+00  2944   0.245E+01-0.867E-01
 gam= 0.585 trial= 0.137  step= 0.283 mean= 0.137
 gam= 0.755 g(H,U,f)=  0.666E+00 0.923E+00 0.256E+00 ort(H,U,f) = 0.325E+00-0.266E+00-0.655E-01
CGA:   3    -0.118533352099E+04   -0.33896E+00   -0.33945E+00  2944   0.185E+01-0.600E-02
 gam= 0.755 trial= 0.144  step= 0.109 mean= 0.144
 gam= 0.316 g(H,U,f)=  0.416E+00 0.138E+00 0.287E-01 ort(H,U,f) = 0.304E+00-0.266E+00-0.570E-01
CGA:   4    -0.118543558706E+04   -0.10207E+00   -0.10046E+00  2944   0.583E+00-0.187E-01
 gam= 0.316 trial= 0.142  step= 0.276 mean= 0.142
 gam= 0.432 g(H,U,f)=  0.119E+00 0.109E+00 0.242E-01 ort(H,U,f) = 0.666E-01-0.471E-01-0.137E-01
CGA:   5    -0.118551569609E+04   -0.80109E-01   -0.79721E-01  2944   0.252E+00 0.583E-02
 gam= 0.432 trial= 0.149  step= 0.143 mean= 0.149
 gam= 0.457 g(H,U,f)=  0.579E-01 0.520E-01 0.524E-02 ort(H,U,f) = 0.454E-01-0.408E-01-0.494E-02
CGA:   6    -0.118553391249E+04   -0.18216E-01   -0.18214E-01  2944   0.115E+00-0.333E-03
 gam= 0.457 trial= 0.149  step= 0.120 mean= 0.149
 gam= 1.274 g(H,U,f)=  0.293E-01 0.942E-01 0.232E-01 ort(H,U,f) = 0.405E-01-0.329E-01-0.813E-02
CGA:   7    -0.118554085262E+04   -0.69401E-02   -0.69124E-02  2944   0.147E+00-0.516E-03
 gam= 1.274 trial= 0.147  step= 0.078 mean= 0.147
 gam= 0.231 g(H,U,f)=  0.140E-01 0.184E-01 0.138E-02 ort(H,U,f) = 0.211E-01-0.191E-01-0.262E-02
CGA:   8    -0.118554648507E+04   -0.56324E-02   -0.56868E-02  2944   0.339E-01-0.608E-03
 gam= 0.231 trial= 0.144  step= 0.161 mean= 0.144
 gam= 0.319 g(H,U,f)=  0.604E-02 0.448E-02 0.285E-03 ort(H,U,f) = 0.425E-02-0.378E-02-0.249E-03
CGA:   9    -0.118554919709E+04   -0.27120E-02   -0.27090E-02  2944   0.108E-01 0.220E-03
 gam= 0.319 trial= 0.145  step= 0.223 mean= 0.145
 gam= 0.847 g(H,U,f)=  0.318E-02 0.499E-02 0.988E-03 ort(H,U,f) = 0.237E-02-0.192E-02-0.373E-03
CGA:  10    -0.118555041461E+04   -0.12175E-02   -0.12143E-02  2944   0.915E-02 0.720E-04
 gam= 0.847 trial= 0.149  step= 0.149 mean= 0.149
 gam= 0.823 g(H,U,f)=  0.169E-02 0.498E-02 0.868E-03 ort(H,U,f) = 0.146E-02-0.996E-03-0.475E-03
CGA:  11    -0.118555110109E+04   -0.68647E-03   -0.68648E-03  2944   0.753E-02-0.122E-04
 gam= 0.823 trial= 0.149  step= 0.071 mean= 0.149
 gam= 0.549 g(H,U,f)=  0.127E-02 0.228E-02 0.585E-03 ort(H,U,f) = 0.122E-02-0.873E-03-0.331E-03
CGA:  12    -0.118555136963E+04   -0.26855E-03   -0.26779E-03  2944   0.414E-02 0.132E-04
 gam= 0.549 trial= 0.145  step= 0.113 mean= 0.145
 gam= 0.438 g(H,U,f)=  0.888E-03 0.762E-03 0.161E-03 ort(H,U,f) = 0.696E-03-0.461E-03-0.234E-03
CGA:  13    -0.118555160337E+04   -0.23373E-03   -0.23369E-03  2944   0.181E-02 0.106E-05
 gam= 0.438 trial= 0.143  step= 0.331 mean= 0.143
 gam= 0.663 g(H,U,f)=  0.501E-03 0.626E-03 0.726E-04 ort(H,U,f) = 0.939E-04-0.590E-04-0.372E-04
CGA:  14    -0.118555190254E+04   -0.29917E-03   -0.29940E-03  2944   0.120E-02-0.229E-05
 gam= 0.663 trial= 0.153  step= 0.171 mean= 0.153
 gam= 0.659 g(H,U,f)=  0.344E-03 0.387E-03 0.599E-04 ort(H,U,f) = 0.180E-03-0.152E-03-0.279E-04
CGA:  15    -0.118555200501E+04   -0.10247E-03   -0.10248E-03  2944   0.791E-03-0.421E-06
 gam= 0.659 trial= 0.153  step= 0.118 mean= 0.153
 gam= 1.613 g(H,U,f)=  0.277E-03 0.796E-03 0.202E-03 ort(H,U,f) = 0.287E-03-0.207E-03-0.786E-04
CGA:  16    -0.118555205176E+04   -0.46750E-04   -0.46773E-04  2944   0.128E-02 0.750E-06
 gam= 1.613 trial= 0.152  step= 0.120 mean= 0.152
 gam= 0.401 g(H,U,f)=  0.196E-03 0.267E-03 0.484E-04 ort(H,U,f) = 0.219E-03-0.178E-03-0.403E-04
CGA:  17    -0.118555212834E+04   -0.76582E-04   -0.76617E-04  2944   0.511E-03 0.108E-05
 gam= 0.401 trial= 0.150  step= 0.157 mean= 0.150
 gam= 0.577 g(H,U,f)=  0.129E-03 0.136E-03 0.301E-04 ort(H,U,f) = 0.117E-03-0.887E-04-0.253E-04
CGA:  18    -0.118555216859E+04   -0.40249E-04   -0.40239E-04  2944   0.295E-03 0.287E-05
 gam= 0.577 trial= 0.150  step= 0.197 mean= 0.150
 gam= 0.567 g(H,U,f)=  0.862E-04 0.744E-04 0.688E-05 ort(H,U,f) = 0.752E-04-0.669E-04-0.712E-05
CGA:  19    -0.118555219782E+04   -0.29227E-04   -0.29202E-04  2944   0.167E-03 0.110E-05
 gam= 0.567 trial= 0.153  step= 0.263 mean= 0.153
 gam= 1.043 g(H,U,f)=  0.522E-04 0.104E-03 0.186E-04 ort(H,U,f) = 0.436E-04-0.377E-04-0.425E-05
CGA:  20    -0.118555222000E+04   -0.22174E-04   -0.22080E-04  2944   0.175E-03 0.167E-05
 gam= 1.043 trial= 0.158  step= 0.092 mean= 0.158
 gam= 0.867 g(H,U,f)=  0.377E-04 0.943E-04 0.195E-04 ort(H,U,f) = 0.557E-04-0.441E-04-0.117E-04
CGA:  21    -0.118555222813E+04   -0.81377E-05   -0.81356E-05  2944   0.152E-03-0.638E-07
 gam= 0.867 trial= 0.155  step= 0.089 mean= 0.155
 final diagonalization
  28 F= -.11855522E+04 E0= -.11855320E+04  d E =0.598388E-02  mag=   118.0000
quench:  g(F)=  0.000E+00 g(S)=  0.000E+00 dE (1.order)= 0.000E+00
 bond charge predicted
 wavefunctions rotated
       N       E                     dE             d eps       ncg     rms          ort
 gam= 0.000 g(H,U,f)=  0.462E+01 0.359E+02 0.167E+02 ort(H,U,f) = 0.000E+00 0.000E+00 0.000E+00
SDA:   1    -0.118391857934E+04    0.16336E+01    0.00000E+00  2944   0.572E+02 0.000E+00
 gam= 0.000 trial= 0.152  step= 0.052 mean= 0.152
 gam= 0.000 g(H,U,f)=  0.114E+01 0.103E+02 0.368E+01 ort(H,U,f) =-0.157E+01-0.244E+02-0.925E+01
CGA:   2    -0.118518657438E+04   -0.12680E+01   -0.14869E+01  2944   0.152E+02-0.352E+02
 gam= 0.000 trial= 0.147  step= 0.041 mean= 0.147
 gam= 0.080 g(H,U,f)=  0.271E+00 0.705E+00 0.238E+00 ort(H,U,f) = 0.123E+00-0.267E+01-0.882E+00
CGA:   3    -0.118543751696E+04   -0.25094E+00   -0.31353E+00  2944   0.121E+01-0.343E+01
 gam= 0.080 trial= 0.141  step= 0.067 mean= 0.141
 gam= 0.268 g(H,U,f)=  0.199E+00 0.102E+00 0.249E-01 ort(H,U,f) = 0.218E+00-0.168E+00-0.499E-01
CGA:   4    -0.118546903658E+04   -0.31520E-01   -0.31368E-01  2944   0.325E+00-0.119E-03
 gam= 0.268 trial= 0.138  step= 0.191 mean= 0.138
 gam= 1.915 g(H,U,f)=  0.120E+00 0.401E+00 0.102E+00 ort(H,U,f) = 0.131E+00-0.107E+00-0.220E-01
CGA:   5    -0.118550022869E+04   -0.31192E-01   -0.31111E-01  2944   0.623E+00 0.241E-02
 gam= 1.915 trial= 0.140  step= 0.091 mean= 0.140
 gam= 0.270 g(H,U,f)=  0.595E-01 0.816E-01 0.268E-01 ort(H,U,f) = 0.127E+00-0.961E-01-0.315E-01
CGA:   6    -0.118552889762E+04   -0.28669E-01   -0.28671E-01  2944   0.168E+00-0.333E-03
 gam= 0.270 trial= 0.138  step= 0.105 mean= 0.138
 gam= 0.901 g(H,U,f)=  0.517E-01 0.809E-01 0.187E-01 ort(H,U,f) = 0.592E-01-0.454E-01-0.137E-01
CGA:   7    -0.118553771621E+04   -0.88186E-02   -0.88280E-02  2944   0.151E+00 0.810E-04
 gam= 0.901 trial= 0.136  step= 0.116 mean= 0.136
 gam= 0.507 g(H,U,f)=  0.201E-01 0.476E-01 0.887E-02 ort(H,U,f) = 0.382E-01-0.333E-01-0.533E-02
CGA:   8    -0.118554647264E+04   -0.87564E-02   -0.87435E-02  2944   0.766E-01-0.405E-03
 gam= 0.507 trial= 0.135  step= 0.098 mean= 0.135
 gam= 0.594 g(H,U,f)=  0.120E-01 0.258E-01 0.775E-02 ort(H,U,f) = 0.230E-01-0.178E-01-0.524E-02
CGA:   9    -0.118555021558E+04   -0.37429E-02   -0.37457E-02  2944   0.455E-01 0.157E-04
 gam= 0.594 trial= 0.133  step= 0.088 mean= 0.133
 gam= 0.335 g(H,U,f)=  0.504E-02 0.834E-02 0.186E-02 ort(H,U,f) = 0.908E-02-0.681E-02-0.227E-02
CGA:  10    -0.118555222319E+04   -0.20076E-02   -0.20060E-02  2944   0.152E-01-0.100E-05
 gam= 0.335 trial= 0.131  step= 0.106 mean= 0.131
 gam= 0.807 g(H,U,f)=  0.309E-02 0.759E-02 0.162E-02 ort(H,U,f) = 0.534E-02-0.434E-02-0.981E-03
CGA:  11    -0.118555302774E+04   -0.80455E-03   -0.80511E-03  2944   0.123E-01 0.148E-04
 gam= 0.807 trial= 0.130  step= 0.113 mean= 0.130
 gam= 0.556 g(H,U,f)=  0.176E-02 0.409E-02 0.981E-03 ort(H,U,f) = 0.303E-02-0.239E-02-0.636E-03
CGA:  12    -0.118555372254E+04   -0.69480E-03   -0.69478E-03  2944   0.683E-02 0.152E-05
 gam= 0.556 trial= 0.129  step= 0.103 mean= 0.129
 gam= 0.638 g(H,U,f)=  0.920E-03 0.278E-02 0.652E-03 ort(H,U,f) = 0.182E-02-0.132E-02-0.499E-03
CGA:  13    -0.118555407300E+04   -0.35046E-03   -0.35072E-03  2944   0.436E-02 0.711E-05
 gam= 0.638 trial= 0.128  step= 0.094 mean= 0.128
 gam= 0.403 g(H,U,f)=  0.550E-03 0.100E-02 0.205E-03 ort(H,U,f) = 0.902E-03-0.736E-03-0.168E-03
CGA:  14    -0.118555427716E+04   -0.20416E-03   -0.20402E-03  2944   0.176E-02-0.135E-05
 gam= 0.403 trial= 0.126  step= 0.110 mean= 0.126
 gam= 0.893 g(H,U,f)=  0.384E-03 0.944E-03 0.241E-03 ort(H,U,f) = 0.553E-03-0.404E-03-0.148E-03
CGA:  15    -0.118555437336E+04   -0.96200E-04   -0.96201E-04  2944   0.157E-02 0.283E-06
 gam= 0.893 trial= 0.125  step= 0.130 mean= 0.125
 gam= 0.738 g(H,U,f)=  0.249E-03 0.748E-03 0.161E-03 ort(H,U,f) = 0.380E-03-0.290E-03-0.921E-04
CGA:  16    -0.118555447556E+04   -0.10220E-03   -0.10221E-03  2944   0.116E-02-0.224E-05
 gam= 0.738 trial= 0.125  step= 0.103 mean= 0.125
 gam= 0.643 g(H,U,f)=  0.171E-03 0.459E-03 0.114E-03 ort(H,U,f) = 0.243E-03-0.175E-03-0.674E-04
CGA:  17    -0.118555453528E+04   -0.59727E-04   -0.59733E-04  2944   0.744E-03 0.469E-06
 gam= 0.643 trial= 0.124  step= 0.104 mean= 0.124
 gam= 0.551 g(H,U,f)=  0.118E-03 0.237E-03 0.552E-04 ort(H,U,f) = 0.150E-03-0.100E-03-0.496E-04
CGA:  18    -0.118555457384E+04   -0.38557E-04   -0.38553E-04  2944   0.410E-03-0.373E-06
 gam= 0.551 trial= 0.123  step= 0.116 mean= 0.123
 gam= 0.898 g(H,U,f)=  0.936E-04 0.226E-03 0.483E-04 ort(H,U,f) = 0.116E-03-0.908E-04-0.253E-04
CGA:  19    -0.118555459753E+04   -0.23685E-04   -0.23687E-04  2944   0.368E-03 0.363E-06
 gam= 0.898 trial= 0.123  step= 0.127 mean= 0.123
 gam= 0.796 g(H,U,f)=  0.730E-04 0.177E-03 0.432E-04 ort(H,U,f) = 0.923E-04-0.677E-04-0.244E-04
CGA:  20    -0.118555462090E+04   -0.23375E-04   -0.23374E-04  2944   0.293E-03 0.265E-06
 gam= 0.796 trial= 0.123  step= 0.113 mean= 0.123
 gam= 0.706 g(H,U,f)=  0.489E-04 0.126E-03 0.319E-04 ort(H,U,f) = 0.696E-04-0.480E-04-0.204E-04
CGA:  21    -0.118555463742E+04   -0.16524E-04   -0.16529E-04  2944   0.207E-03 0.120E-05
 gam= 0.706 trial= 0.123  step= 0.099 mean= 0.123
 gam= 0.503 g(H,U,f)=  0.342E-04 0.586E-04 0.113E-04 ort(H,U,f) = 0.482E-04-0.379E-04-0.973E-05
CGA:  22    -0.118555464766E+04   -0.10238E-04   -0.10245E-04  2944   0.104E-03 0.578E-06
 gam= 0.503 trial= 0.121  step= 0.114 mean= 0.121
 gam= 0.872 g(H,U,f)=  0.254E-04 0.524E-04 0.129E-04 ort(H,U,f) = 0.346E-04-0.273E-04-0.681E-05
CGA:  23    -0.118555465360E+04   -0.59398E-05   -0.59418E-05  2944   0.907E-04 0.461E-06
 gam= 0.872 trial= 0.121  step= 0.126 mean= 0.121
 final diagonalization
  29 F= -.11855547E+04 E0= -.11855345E+04  d E =-.242547E-02  mag=   118.0000
quench:  g(F)=  0.000E+00 g(S)=  0.000E+00 dE (1.order)= 0.000E+00
 bond charge predicted
 wavefunctions rotated
       N       E                     dE             d eps       ncg     rms          ort
 gam= 0.000 g(H,U,f)=  0.902E-01 0.448E+00 0.145E+00 ort(H,U,f) = 0.000E+00 0.000E+00 0.000E+00
SDA:   1    -0.118552470503E+04    0.29943E-01    0.00000E+00  2944   0.684E+00 0.000E+00
 gam= 0.000 trial= 0.121  step= 0.036 mean= 0.121
 gam= 0.086 g(H,U,f)=  0.469E-01 0.981E-02 0.174E-02 ort(H,U,f) = 0.495E-01-0.452E-01-0.125E-01
CGA:   2    -0.118553698421E+04   -0.12279E-01   -0.12434E-01  2944   0.585E-01-0.828E-02
 gam= 0.086 trial= 0.117  step= 0.306 mean= 0.117
 gam= 1.224 g(H,U,f)=  0.245E-01 0.421E-01 0.498E-02 ort(H,U,f) = 0.155E-01-0.138E-01-0.133E-02
CGA:   3    -0.118554583867E+04   -0.88545E-02   -0.88256E-02  2944   0.716E-01 0.345E-03
 gam= 1.224 trial= 0.126  step= 0.122 mean= 0.126
 gam= 0.571 g(H,U,f)=  0.143E-01 0.207E-01 0.584E-02 ort(H,U,f) = 0.117E-01-0.910E-02-0.263E-02
CGA:   4    -0.118555024569E+04   -0.44070E-02   -0.44067E-02  2944   0.409E-01-0.720E-04
 gam= 0.571 trial= 0.126  step= 0.079 mean= 0.126
 gam= 0.706 g(H,U,f)=  0.114E-01 0.135E-01 0.397E-02 ort(H,U,f) = 0.136E-01-0.105E-01-0.314E-02
CGA:   5    -0.118555186243E+04   -0.16167E-02   -0.16179E-02  2944   0.289E-01-0.649E-05
 gam= 0.706 trial= 0.124  step= 0.120 mean= 0.124
 gam= 0.406 g(H,U,f)=  0.465E-02 0.584E-02 0.122E-02 ort(H,U,f) = 0.660E-02-0.530E-02-0.133E-02
CGA:   6    -0.118555359648E+04   -0.17340E-02   -0.17340E-02  2944   0.117E-01-0.316E-04
 gam= 0.406 trial= 0.124  step= 0.165 mean= 0.124
 gam= 0.326 g(H,U,f)=  0.156E-02 0.189E-02 0.365E-03 ort(H,U,f) = 0.149E-02-0.126E-02-0.204E-03
CGA:   7    -0.118555456185E+04   -0.96537E-03   -0.96457E-03  2944   0.381E-02 0.288E-04
 gam= 0.326 trial= 0.126  step= 0.076 mean= 0.126
 gam= 0.838 g(H,U,f)=  0.117E-02 0.160E-02 0.425E-03 ort(H,U,f) = 0.130E-02-0.970E-03-0.329E-03
CGA:   8    -0.118555470721E+04   -0.14536E-03   -0.14530E-03  2944   0.320E-02 0.603E-06
 gam= 0.838 trial= 0.123  step= 0.147 mean= 0.123
 gam= 0.408 g(H,U,f)=  0.454E-03 0.787E-03 0.634E-04 ort(H,U,f) = 0.641E-03-0.572E-03-0.599E-04
CGA:   9    -0.118555494280E+04   -0.23560E-03   -0.23546E-03  2944   0.130E-02 0.875E-05
 gam= 0.408 trial= 0.124  step= 0.147 mean= 0.124
 gam= 0.495 g(H,U,f)=  0.206E-03 0.371E-03 0.693E-04 ort(H,U,f) = 0.198E-03-0.164E-03-0.339E-04
CGA:  10    -0.118555503915E+04   -0.96347E-04   -0.96368E-04  2944   0.646E-03-0.427E-06
 gam= 0.495 trial= 0.126  step= 0.078 mean= 0.126
 gam= 0.677 g(H,U,f)=  0.134E-03 0.248E-03 0.558E-04 ort(H,U,f) = 0.166E-03-0.128E-03-0.383E-04
CGA:  11    -0.118555506424E+04   -0.25088E-04   -0.25103E-04  2944   0.438E-03 0.218E-06
 gam= 0.677 trial= 0.123  step= 0.114 mean= 0.123
 gam= 0.571 g(H,U,f)=  0.916E-04 0.132E-03 0.260E-04 ort(H,U,f) = 0.113E-03-0.911E-04-0.224E-04
CGA:  12    -0.118555508927E+04   -0.25033E-04   -0.25028E-04  2944   0.250E-03-0.794E-06
 gam= 0.571 trial= 0.123  step= 0.187 mean= 0.123
 gam= 0.676 g(H,U,f)=  0.513E-04 0.929E-04 0.247E-04 ort(H,U,f) = 0.365E-04-0.235E-04-0.118E-04
CGA:  13    -0.118555511267E+04   -0.23400E-04   -0.23364E-04  2944   0.169E-03 0.114E-05
 gam= 0.676 trial= 0.126  step= 0.101 mean= 0.126
 gam= 0.873 g(H,U,f)=  0.325E-04 0.928E-04 0.223E-04 ort(H,U,f) = 0.345E-04-0.232E-04-0.114E-04
CGA:  14    -0.118555512127E+04   -0.85973E-05   -0.85970E-05  2944   0.148E-03-0.523E-07
 gam= 0.873 trial= 0.125  step= 0.083 mean= 0.125
 final diagonalization
  30 F= -.11855551E+04 E0= -.11855350E+04  d E =-.467666E-03  mag=   118.0000
quench:  g(F)=  0.000E+00 g(S)=  0.000E+00 dE (1.order)= 0.000E+00
 reached required accuracy - stopping structural energy minimisation
