       N       E                     dE             d eps       ncg     rms          rms(c)
DAV:   1     0.140416555041E+05    0.14042E+05   -0.38242E+05  8072   0.168E+03
DAV:   2     0.192803239980E+04   -0.12114E+05   -0.11840E+05  8064   0.568E+02
DAV:   3    -0.743549345828E+03   -0.26716E+04   -0.25432E+04 11208   0.254E+02
DAV:   4    -0.109390325176E+04   -0.35035E+03   -0.34558E+03 13056   0.120E+02
DAV:   5    -0.111282565697E+04   -0.18922E+02   -0.18359E+02 13272   0.343E+01    0.149E+02
DAV:   6    -0.932064229562E+03    0.18076E+03   -0.18697E+03 13232   0.883E+01    0.117E+02
DAV:   7    -0.914154762891E+03    0.17909E+02   -0.10882E+03 12992   0.122E+02    0.733E+01
DAV:   8    -0.909775719841E+03    0.43790E+01   -0.36208E+02 13776   0.371E+01    0.638E+01
DAV:   9    -0.894770606525E+03    0.15005E+02   -0.73370E+01 13168   0.217E+01    0.592E+01
DAV:  10    -0.886719622816E+03    0.80510E+01   -0.73912E+01 13192   0.188E+01    0.532E+01
DAV:  11    -0.879463357583E+03    0.72563E+01   -0.74375E+01 13440   0.164E+01    0.435E+01
DAV:  12    -0.874609232895E+03    0.48541E+01   -0.24880E+01 13440   0.113E+01    0.395E+01
DAV:  13    -0.872852804885E+03    0.17564E+01   -0.27867E+01 12480   0.910E+00    0.337E+01
DAV:  14    -0.872381226706E+03    0.47158E+00   -0.27532E+01 12632   0.946E+00    0.328E+01
DAV:  15    -0.869584419875E+03    0.27968E+01   -0.78918E+00 12336   0.551E+00    0.233E+01
DAV:  16    -0.869140384294E+03    0.44404E+00   -0.55147E+00 12560   0.400E+00    0.263E+01
DAV:  17    -0.869452160639E+03   -0.31178E+00   -0.78071E+00 12472   0.363E+00    0.247E+01
DAV:  18    -0.868396910232E+03    0.10553E+01   -0.18225E+00 11656   0.280E+00    0.157E+01
DAV:  19    -0.868629550280E+03   -0.23264E+00   -0.12052E+00 12408   0.227E+00    0.183E+01
DAV:  20    -0.868523138290E+03    0.10641E+00   -0.69488E-01 12248   0.139E+00    0.153E+01
DAV:  21    -0.868533627288E+03   -0.10489E-01   -0.50413E-02 12624   0.533E-01    0.150E+01
DAV:  22    -0.868495413830E+03    0.38213E-01   -0.10665E-02 13880   0.237E-01    0.149E+01
DAV:  23    -0.868500314100E+03   -0.49003E-02   -0.32475E-03 11040   0.138E-01    0.150E+01
DAV:  24    -0.868494878440E+03    0.54357E-02   -0.38694E-03 11672   0.135E-01    0.147E+01
DAV:  25    -0.868486743705E+03    0.81347E-02   -0.18148E-01 13224   0.772E-01    0.158E+01
DAV:  26    -0.868569745957E+03   -0.83002E-01   -0.64645E-01 13272   0.126E+00    0.174E+01
DAV:  27    -0.868656212243E+03   -0.86466E-01   -0.68771E-01 13256   0.123E+00    0.157E+01
DAV:  28    -0.868728214573E+03   -0.72002E-01   -0.85783E-02 11936   0.676E-01    0.156E+01
DAV:  29    -0.868883713287E+03   -0.15550E+00   -0.16638E-01 12008   0.881E-01    0.166E+01
DAV:  30    -0.868916703485E+03   -0.32990E-01   -0.50868E-02 12208   0.553E-01    0.164E+01
DAV:  31    -0.868932237440E+03   -0.15534E-01   -0.86164E-03 12784   0.212E-01    0.165E+01
DAV:  32    -0.869234678717E+03   -0.30244E+00   -0.33374E-01 13232   0.162E+00    0.185E+01
DAV:  33    -0.869152408304E+03    0.82270E-01   -0.96959E-02 12896   0.719E-01    0.170E+01
DAV:  34    -0.869163662584E+03   -0.11254E-01   -0.11817E-01 12696   0.791E-01    0.166E+01
DAV:  35    -0.868954911617E+03    0.20875E+00   -0.22227E-01 12496   0.112E+00    0.163E+01
DAV:  36    -0.867318897150E+03    0.16360E+01   -0.24345E+00 12000   0.227E+00    0.209E+01
DAV:  37    -0.867378427555E+03   -0.59530E-01   -0.19817E-01 12336   0.922E-01    0.206E+01
DAV:  38    -0.867263432463E+03    0.11500E+00   -0.13110E-02 12888   0.238E-01    0.203E+01
DAV:  39    -0.866105048507E+03    0.11584E+01   -0.29669E-01 11976   0.757E-01    0.193E+01
DAV:  40    -0.866066755677E+03    0.38293E-01   -0.12325E-01 12176   0.656E-01    0.178E+01
DAV:  41    -0.866246782210E+03   -0.18003E+00   -0.27337E-02 11920   0.330E-01    0.173E+01
DAV:  42    -0.866269783483E+03   -0.23001E-01   -0.45942E-03 12360   0.138E-01    0.173E+01
DAV:  43    -0.866979424685E+03   -0.70964E+00   -0.36947E-01 11848   0.116E+00    0.170E+01
DAV:  44    -0.866586053063E+03    0.39337E+00   -0.10445E-01 12632   0.643E-01    0.169E+01
DAV:  45    -0.863365645256E+03    0.32204E+01   -0.11891E+00 11248   0.118E+00    0.175E+01
DAV:  46    -0.857777510733E+03    0.55881E+01   -0.17491E+00 11392   0.140E+00    0.186E+01
DAV:  47    -0.855077340361E+03    0.27002E+01   -0.68257E-01 11840   0.854E-01    0.195E+01
DAV:  48    -0.854163542892E+03    0.91380E+00   -0.66079E-02 12136   0.312E-01    0.197E+01
DAV:  49    -0.855348079313E+03   -0.11845E+01   -0.16665E-01 10928   0.507E-01    0.193E+01
DAV:  50    -0.859514220622E+03   -0.41661E+01   -0.16726E+00 11184   0.138E+00    0.174E+01
DAV:  51    -0.862283319115E+03   -0.27691E+01   -0.14324E+00 11816   0.152E+00    0.158E+01
DAV:  52    -0.861043872746E+03    0.12394E+01   -0.25877E-01 11480   0.938E-01    0.166E+01
DAV:  53    -0.864726309057E+03   -0.36824E+01   -0.69643E-01 11144   0.115E+00    0.146E+01
DAV:  54    -0.865256754242E+03   -0.53045E+00   -0.11805E-01 12904   0.538E-01    0.140E+01
DAV:  55    -0.866050558784E+03   -0.79380E+00   -0.70891E-02 11448   0.366E-01    0.135E+01
DAV:  56    -0.868251913442E+03   -0.22014E+01   -0.16042E+00 11816   0.191E+00    0.119E+01
DAV:  57    -0.868466815329E+03   -0.21490E+00   -0.25352E-01 12736   0.113E+00    0.100E+01
DAV:  58    -0.868611060535E+03   -0.14425E+00   -0.16142E-01 11816   0.865E-01    0.936E+00
DAV:  59    -0.868414143008E+03    0.19692E+00   -0.11016E-01 12144   0.791E-01    0.913E+00
DAV:  60    -0.868578936238E+03   -0.16479E+00   -0.86647E-02 12224   0.726E-01    0.771E+00
DAV:  61    -0.868744620532E+03   -0.16568E+00   -0.19329E-01 12512   0.861E-01    0.707E+00
DAV:  62    -0.868779258835E+03   -0.34638E-01   -0.34214E-02 12616   0.410E-01    0.672E+00
DAV:  63    -0.868765068978E+03    0.14190E-01   -0.26840E-02 12344   0.382E-01    0.611E+00
DAV:  64    -0.868750312717E+03    0.14756E-01   -0.39823E-02 12440   0.453E-01    0.582E+00
DAV:  65    -0.868811728037E+03   -0.61415E-01   -0.20921E-02 12696   0.351E-01    0.495E+00
DAV:  66    -0.868943730135E+03   -0.13200E+00   -0.93009E-02 12456   0.766E-01    0.370E+00
DAV:  67    -0.868932228386E+03    0.11502E-01   -0.39617E-02 12152   0.479E-01    0.303E+00
DAV:  68    -0.868943919640E+03   -0.11691E-01   -0.14310E-02 12624   0.255E-01    0.290E+00
DAV:  69    -0.868954652148E+03   -0.10733E-01   -0.83286E-03 11816   0.232E-01    0.267E+00
DAV:  70    -0.868954810897E+03   -0.15875E-03   -0.10285E-02 12624   0.260E-01    0.260E+00
DAV:  71    -0.868977321925E+03   -0.22511E-01   -0.40812E-02 12760   0.578E-01    0.305E+00
DAV:  72    -0.868966457540E+03    0.10864E-01   -0.22036E-02 12640   0.413E-01    0.191E+00
DAV:  73    -0.868965637098E+03    0.82044E-03   -0.94648E-03 12720   0.236E-01    0.139E+00
DAV:  74    -0.868967023063E+03   -0.13860E-02   -0.46086E-03 13024   0.150E-01    0.120E+00
DAV:  75    -0.868967290862E+03   -0.26780E-03   -0.16981E-03 11176   0.108E-01    0.113E+00
DAV:  76    -0.868968174477E+03   -0.88362E-03   -0.26913E-03 12184   0.126E-01    0.103E+00
DAV:  77    -0.868968980917E+03   -0.80644E-03   -0.18685E-03 12200   0.106E-01    0.884E-01
DAV:  78    -0.868969789372E+03   -0.80846E-03   -0.14829E-03 11424   0.969E-02    0.712E-01
DAV:  79    -0.868970347762E+03   -0.55839E-03   -0.13087E-03 11896   0.794E-02    0.640E-01
DAV:  80    -0.868970524557E+03   -0.17679E-03   -0.38331E-04 10736   0.448E-02    0.671E-01
DAV:  81    -0.868970595841E+03   -0.71284E-04   -0.25595E-04 11192   0.397E-02    0.724E-01
DAV:  82    -0.868970315294E+03    0.28055E-03   -0.86462E-05  8776   0.281E-02    0.695E-01
DAV:  83    -0.868970379214E+03   -0.63921E-04   -0.21681E-05  6424   0.148E-02    0.704E-01
DAV:  84    -0.868970329599E+03    0.49615E-04   -0.13331E-05  5728   0.111E-02    0.690E-01
DAV:  85    -0.868970321788E+03    0.78116E-05   -0.42478E-06  4856   0.754E-03
   1 F= -.86897032E+03 E0= -.86894808E+03  d E =-.868970E+03  mag=    14.0412
       N       E                     dE             d eps       ncg     rms          rms(c)
DAV:   1    -0.869075081694E+03   -0.10475E+00   -0.41496E+00  9936   0.559E+00    0.382E+00
DAV:   2    -0.869106586778E+03   -0.31505E-01   -0.63403E-01 10768   0.280E+00    0.802E+00
DAV:   3    -0.869081016763E+03    0.25570E-01   -0.43689E-01 10336   0.211E+00    0.976E+00
DAV:   4    -0.868973331586E+03    0.10769E+00   -0.47347E-01 10448   0.136E+00    0.505E+00
DAV:   5    -0.868969120738E+03    0.42108E-02   -0.19682E-01 10752   0.103E+00    0.415E+00
DAV:   6    -0.869000920848E+03   -0.31800E-01   -0.26092E-01 11056   0.960E-01    0.583E+00
DAV:   7    -0.868952286875E+03    0.48634E-01   -0.17778E-01 10744   0.961E-01    0.219E+00
DAV:   8    -0.868982830168E+03   -0.30543E-01   -0.50956E-02 11448   0.618E-01    0.284E+00
DAV:   9    -0.868976315190E+03    0.65150E-02   -0.31019E-02 11184   0.491E-01    0.176E+00
DAV:  10    -0.868978065661E+03   -0.17505E-02   -0.73287E-03 10824   0.275E-01    0.157E+00
DAV:  11    -0.868978169324E+03   -0.10366E-03   -0.77597E-03 10632   0.246E-01    0.143E+00
DAV:  12    -0.868977457642E+03    0.71168E-03   -0.52919E-03 10824   0.214E-01    0.120E+00
DAV:  13    -0.868977916047E+03   -0.45840E-03   -0.52896E-03 10616   0.198E-01    0.120E+00
DAV:  14    -0.868977371110E+03    0.54494E-03   -0.77124E-03 11232   0.198E-01    0.849E-01
DAV:  15    -0.868977699952E+03   -0.32884E-03   -0.49257E-03 10968   0.199E-01    0.775E-01
DAV:  16    -0.868977777533E+03   -0.77581E-04   -0.46777E-03 10552   0.161E-01    0.699E-01
DAV:  17    -0.868977656171E+03    0.12136E-03   -0.29125E-03 10400   0.124E-01    0.570E-01
DAV:  18    -0.868977543840E+03    0.11233E-03   -0.14762E-03 10352   0.870E-02    0.493E-01
DAV:  19    -0.868977576753E+03   -0.32912E-04   -0.69325E-04  9688   0.640E-02    0.459E-01
DAV:  20    -0.868977460766E+03    0.11599E-03   -0.61292E-04  9504   0.626E-02    0.388E-01
DAV:  21    -0.868977413668E+03    0.47098E-04   -0.43310E-04 11296   0.507E-02    0.310E-01
DAV:  22    -0.868977435018E+03   -0.21350E-04   -0.39617E-04 11120   0.586E-02    0.272E-01
DAV:  23    -0.868977419282E+03    0.15737E-04   -0.39325E-04 11488   0.593E-02    0.236E-01
DAV:  24    -0.868977385929E+03    0.33352E-04   -0.33941E-04 10784   0.566E-02    0.182E-01
DAV:  25    -0.868977398319E+03   -0.12390E-04   -0.16122E-04  9360   0.361E-02    0.163E-01
DAV:  26    -0.868977391913E+03    0.64064E-05   -0.10768E-04  8528   0.316E-02    0.157E-01
DAV:  27    -0.868977371533E+03    0.20380E-04   -0.88649E-05  7872   0.255E-02    0.108E-01
DAV:  28    -0.868977381252E+03   -0.97192E-05   -0.37508E-05  7904   0.177E-02
   2 F= -.86897738E+03 E0= -.86895628E+03  d E =-.705946E-02  mag=    14.0031
       N       E                     dE             d eps       ncg     rms          rms(c)
DAV:   1    -0.868984729907E+03   -0.73584E-02   -0.28665E-01  9928   0.147E+00    0.961E-01
DAV:   2    -0.868983985495E+03    0.74441E-03   -0.38167E-02 10744   0.701E-01    0.161E+00
DAV:   3    -0.868985745531E+03   -0.17600E-02   -0.40000E-02 10496   0.542E-01    0.210E+00
DAV:   4    -0.868978160612E+03    0.75849E-02   -0.14796E-02 10472   0.414E-01    0.910E-01
DAV:   5    -0.868978437224E+03   -0.27661E-03   -0.94690E-03 11856   0.236E-01    0.667E-01
DAV:   6    -0.868979134240E+03   -0.69702E-03   -0.59043E-03 10656   0.211E-01    0.101E+00
DAV:   7    -0.868977646527E+03    0.14877E-02   -0.53480E-03 10280   0.162E-01    0.337E-01
DAV:   8    -0.868978313980E+03   -0.66745E-03   -0.91334E-04  9816   0.898E-02    0.355E-01
DAV:   9    -0.868978264400E+03    0.49580E-04   -0.37013E-04  9368   0.578E-02    0.317E-01
DAV:  10    -0.868978281915E+03   -0.17515E-04   -0.16530E-04  8736   0.413E-02    0.316E-01
DAV:  11    -0.868978313591E+03   -0.31677E-04   -0.36162E-04  9256   0.430E-02    0.307E-01
DAV:  12    -0.868978295767E+03    0.17824E-04   -0.38841E-04  9552   0.450E-02    0.268E-01
DAV:  13    -0.868978283445E+03    0.12322E-04   -0.23003E-04  9272   0.452E-02    0.228E-01
DAV:  14    -0.868978238560E+03    0.44886E-04   -0.19692E-04 10112   0.424E-02    0.128E-01
DAV:  15    -0.868978261040E+03   -0.22480E-04   -0.20153E-04  9264   0.357E-02    0.131E-01
DAV:  16    -0.868978272490E+03   -0.11450E-04   -0.22503E-04  8648   0.320E-02    0.146E-01
DAV:  17    -0.868978251630E+03    0.20860E-04   -0.96668E-05  7952   0.291E-02    0.111E-01
DAV:  18    -0.868978261756E+03   -0.10126E-04   -0.71430E-05  7552   0.240E-02    0.120E-01
DAV:  19    -0.868978248786E+03    0.12970E-04   -0.38128E-05  6728   0.196E-02    0.921E-02
DAV:  20    -0.868978254965E+03   -0.61791E-05   -0.28929E-05  6400   0.161E-02
   3 F= -.86897825E+03 E0= -.86895695E+03  d E =-.793318E-02  mag=    14.0005
       N       E                     dE             d eps       ncg     rms          rms(c)
DAV:   1    -0.868979370338E+03   -0.11216E-02   -0.25230E+00  8584   0.442E+00    0.141E+00
DAV:   2    -0.869015710509E+03   -0.36340E-01   -0.30018E-01 12184   0.165E+00    0.442E+00
DAV:   3    -0.868981508617E+03    0.34202E-01   -0.68332E-02 10992   0.840E-01    0.165E+00
DAV:   4    -0.868986190287E+03   -0.46817E-02   -0.23653E-02 10880   0.387E-01    0.178E+00
DAV:   5    -0.868981429035E+03    0.47613E-02   -0.18615E-02 11008   0.337E-01    0.141E+00
DAV:   6    -0.868994044794E+03   -0.12616E-01   -0.42798E-02 12664   0.505E-01    0.336E+00
DAV:   7    -0.868976681210E+03    0.17364E-01   -0.60132E-02 12560   0.522E-01    0.113E+00
DAV:   8    -0.868983882427E+03   -0.72012E-02   -0.79192E-03 12024   0.269E-01    0.115E+00
DAV:   9    -0.868983201590E+03    0.68084E-03   -0.32953E-03 11192   0.187E-01    0.941E-01
DAV:  10    -0.868983486987E+03   -0.28540E-03   -0.16252E-03 11016   0.120E-01    0.819E-01
DAV:  11    -0.868983775832E+03   -0.28885E-03   -0.20053E-03 11248   0.116E-01    0.831E-01
DAV:  12    -0.868983367745E+03    0.40809E-03   -0.17518E-03 11256   0.121E-01    0.685E-01
DAV:  13    -0.868983862117E+03   -0.49437E-03   -0.28111E-03 11856   0.136E-01    0.801E-01
DAV:  14    -0.868982985765E+03    0.87635E-03   -0.33681E-03 11712   0.133E-01    0.419E-01
DAV:  15    -0.868983210462E+03   -0.22470E-03   -0.93561E-04 10624   0.862E-02    0.423E-01
DAV:  16    -0.868983176796E+03    0.33666E-04   -0.85212E-04 10432   0.730E-02    0.382E-01
DAV:  17    -0.868983093035E+03    0.83761E-04   -0.60348E-04 10080   0.594E-02    0.315E-01
DAV:  18    -0.868983154107E+03   -0.61072E-04   -0.61925E-04 10232   0.595E-02    0.332E-01
DAV:  19    -0.868983028521E+03    0.12559E-03   -0.66917E-04 10384   0.635E-02    0.245E-01
DAV:  20    -0.868983123302E+03   -0.94781E-04   -0.69673E-04 10952   0.547E-02    0.294E-01
DAV:  21    -0.868983037147E+03    0.86155E-04   -0.41755E-04 10960   0.513E-02    0.195E-01
DAV:  22    -0.868983046509E+03   -0.93617E-05   -0.16707E-04  9168   0.387E-02    0.183E-01
DAV:  23    -0.868983015455E+03    0.31054E-04   -0.12888E-04  8096   0.330E-02    0.119E-01
DAV:  24    -0.868983037796E+03   -0.22341E-04   -0.67696E-05  7760   0.252E-02    0.128E-01
DAV:  25    -0.868983022168E+03    0.15629E-04   -0.57073E-05  7632   0.251E-02    0.834E-02
DAV:  26    -0.868983034244E+03   -0.12077E-04   -0.36512E-05  7016   0.171E-02    0.791E-02
DAV:  27    -0.868983029548E+03    0.46960E-05   -0.24020E-05  6360   0.158E-02
   4 F= -.86898303E+03 E0= -.86896212E+03  d E =-.477458E-02  mag=    14.0000
       N       E                     dE             d eps       ncg     rms          rms(c)
DAV:   1    -0.868983034285E+03   -0.40600E-07   -0.75228E-04  8624   0.766E-02    0.352E-02
DAV:   2    -0.868983056185E+03   -0.21900E-04   -0.10672E-04  9056   0.326E-02    0.103E-01
DAV:   3    -0.868983036668E+03    0.19518E-04   -0.37221E-05  7024   0.217E-02    0.426E-02
DAV:   4    -0.868983038028E+03   -0.13600E-05   -0.42812E-06  5432   0.745E-03    0.349E-02
DAV:   5    -0.868983037865E+03    0.16300E-06   -0.38002E-06  4720   0.704E-03    0.412E-02
DAV:   6    -0.868983038416E+03   -0.55174E-06   -0.11862E-05  5600   0.968E-03
   5 F= -.86898304E+03 E0= -.86896217E+03  d E =-.478345E-02  mag=    14.0000
       N       E                     dE             d eps       ncg     rms          rms(c)
DAV:   1    -0.868982006980E+03    0.10309E-02   -0.19579E+00  8784   0.406E+00    0.116E+00
DAV:   2    -0.869000127544E+03   -0.18121E-01   -0.19494E-01 11416   0.123E+00    0.295E+00
DAV:   3    -0.868985836868E+03    0.14291E-01   -0.29309E-02 11144   0.564E-01    0.121E+00
DAV:   4    -0.868986161694E+03   -0.32483E-03   -0.11988E-02 11760   0.284E-01    0.134E+00
DAV:   5    -0.868985587183E+03    0.57451E-03   -0.17190E-02 11760   0.339E-01    0.163E+00
DAV:   6    -0.868990774671E+03   -0.51875E-02   -0.33309E-02 11984   0.433E-01    0.230E+00
DAV:   7    -0.868983715818E+03    0.70589E-02   -0.26728E-02 11888   0.406E-01    0.836E-01
DAV:   8    -0.868986903079E+03   -0.31873E-02   -0.38571E-03 11744   0.184E-01    0.817E-01
DAV:   9    -0.868986420207E+03    0.48287E-03   -0.19751E-03 11024   0.122E-01    0.682E-01
DAV:  10    -0.868986584741E+03   -0.16453E-03   -0.12758E-03 11176   0.864E-02    0.604E-01
DAV:  11    -0.868986567635E+03    0.17106E-04   -0.14453E-03 11144   0.882E-02    0.575E-01
DAV:  12    -0.868986636089E+03   -0.68454E-04   -0.10989E-03 11336   0.950E-02    0.533E-01
DAV:  13    -0.868986538410E+03    0.97679E-04   -0.12872E-03 11344   0.997E-02    0.439E-01
DAV:  14    -0.868986539622E+03   -0.12115E-05   -0.11257E-03 11360   0.901E-02    0.340E-01
DAV:  15    -0.868986643258E+03   -0.10364E-03   -0.12782E-03 11168   0.815E-02    0.402E-01
DAV:  16    -0.868986513490E+03    0.12977E-03   -0.95545E-04 11104   0.708E-02    0.293E-01
DAV:  17    -0.868986516117E+03   -0.26268E-05   -0.33646E-04 10392   0.548E-02    0.267E-01
DAV:  18    -0.868986473571E+03    0.42546E-04   -0.30328E-04  9680   0.497E-02    0.231E-01
DAV:  19    -0.868986474506E+03   -0.93514E-06   -0.30487E-04 10480   0.491E-02    0.211E-01
DAV:  20    -0.868986518698E+03   -0.44192E-04   -0.56259E-04 10584   0.530E-02    0.251E-01
DAV:  21    -0.868986438938E+03    0.79760E-04   -0.36001E-04 10120   0.461E-02    0.140E-01
DAV:  22    -0.868986456649E+03   -0.17710E-04   -0.10044E-04  8640   0.309E-02    0.140E-01
DAV:  23    -0.868986439688E+03    0.16961E-04   -0.56146E-05  7592   0.258E-02    0.109E-01
DAV:  24    -0.868986450696E+03   -0.11008E-04   -0.46344E-05  7184   0.211E-02    0.110E-01
DAV:  25    -0.868986443138E+03    0.75575E-05   -0.52280E-05  7112   0.222E-02
   6 F= -.86898644E+03 E0= -.86896569E+03  d E =-.340472E-02  mag=    14.0000
       N       E                     dE             d eps       ncg     rms          rms(c)
DAV:   1    -0.868986072072E+03    0.37862E-03   -0.20267E-01  8824   0.131E+00    0.384E-01
DAV:   2    -0.868988351620E+03   -0.22795E-02   -0.22904E-02 11864   0.413E-01    0.106E+00
DAV:   3    -0.868986381187E+03    0.19704E-02   -0.52156E-03 11352   0.217E-01    0.439E-01
DAV:   4    -0.868986757605E+03   -0.37642E-03   -0.21457E-03 10432   0.117E-01    0.556E-01
DAV:   5    -0.868986107170E+03    0.65044E-03   -0.18377E-03 10032   0.117E-01    0.327E-01
DAV:   6    -0.868987219777E+03   -0.11126E-02   -0.24149E-03 10936   0.136E-01    0.797E-01
DAV:   7    -0.868986256630E+03    0.96315E-03   -0.22976E-03 10808   0.126E-01    0.255E-01
DAV:   8    -0.868986549669E+03   -0.29304E-03   -0.32605E-04 10376   0.527E-02    0.242E-01
DAV:   9    -0.868986515958E+03    0.33711E-04   -0.12715E-04  7920   0.360E-02    0.198E-01
DAV:  10    -0.868986533906E+03   -0.17948E-04   -0.66155E-05  7736   0.248E-02    0.200E-01
DAV:  11    -0.868986521746E+03    0.12160E-04   -0.75583E-05  7856   0.276E-02    0.175E-01
DAV:  12    -0.868986560857E+03   -0.39111E-04   -0.19777E-04  8640   0.344E-02    0.210E-01
DAV:  13    -0.868986514134E+03    0.46723E-04   -0.24566E-04  8984   0.375E-02    0.136E-01
DAV:  14    -0.868986532441E+03   -0.18307E-04   -0.13428E-04  8400   0.320E-02    0.137E-01
DAV:  15    -0.868986525390E+03    0.70509E-05   -0.10669E-04  8144   0.313E-02    0.101E-01
DAV:  16    -0.868986528736E+03   -0.33464E-05   -0.90253E-05  7776   0.247E-02
   7 F= -.86898653E+03 E0= -.86896583E+03  d E =-.349032E-02  mag=    14.0000
       N       E                     dE             d eps       ncg     rms          rms(c)
DAV:   1    -0.868984432292E+03    0.20931E-02   -0.19686E+00  8824   0.377E+00    0.120E+00
DAV:   2    -0.868994956595E+03   -0.10524E-01   -0.16614E-01 10432   0.128E+00    0.167E+00
DAV:   3    -0.868998464266E+03   -0.35077E-02   -0.50699E-02 10560   0.694E-01    0.251E+00
DAV:   4    -0.868987601423E+03    0.10863E-01   -0.29231E-02 10216   0.448E-01    0.112E+00
DAV:   5    -0.868988312561E+03   -0.71114E-03   -0.13280E-02 10936   0.282E-01    0.972E-01
DAV:   6    -0.868987525764E+03    0.78680E-03   -0.89493E-03 10912   0.274E-01    0.777E-01
DAV:   7    -0.868989982621E+03   -0.24569E-02   -0.84695E-03 10640   0.245E-01    0.119E+00
DAV:   8    -0.868988639685E+03    0.13429E-02   -0.55658E-03 10192   0.197E-01    0.595E-01
DAV:   9    -0.868989086484E+03   -0.44680E-03   -0.16559E-03  9720   0.102E-01    0.551E-01
DAV:  10    -0.868989016835E+03    0.69650E-04   -0.82238E-04  9616   0.778E-02    0.482E-01
DAV:  11    -0.868989063291E+03   -0.46457E-04   -0.72373E-04  9632   0.645E-02    0.457E-01
DAV:  12    -0.868989013252E+03    0.50040E-04   -0.76807E-04 10008   0.697E-02    0.383E-01
DAV:  13    -0.868989119302E+03   -0.10605E-03   -0.80830E-04 11464   0.886E-02    0.384E-01
DAV:  14    -0.868988940412E+03    0.17889E-03   -0.68882E-04 11168   0.781E-02    0.231E-01
DAV:  15    -0.868988977176E+03   -0.36763E-04   -0.31792E-04  9712   0.556E-02    0.200E-01
DAV:  16    -0.868989005164E+03   -0.27988E-04   -0.25657E-04  8864   0.462E-02    0.245E-01
DAV:  17    -0.868988938893E+03    0.66271E-04   -0.12202E-04  8176   0.352E-02    0.167E-01
DAV:  18    -0.868988999069E+03   -0.60176E-04   -0.17296E-04  9008   0.399E-02    0.228E-01
DAV:  19    -0.868988916061E+03    0.83008E-04   -0.16255E-04  9064   0.397E-02    0.131E-01
DAV:  20    -0.868988958444E+03   -0.42383E-04   -0.19061E-04  8584   0.361E-02    0.158E-01
DAV:  21    -0.868988918065E+03    0.40379E-04   -0.13467E-04  8480   0.345E-02    0.764E-02
DAV:  22    -0.868988931340E+03   -0.13275E-04   -0.51055E-05  7768   0.205E-02    0.947E-02
DAV:  23    -0.868988921962E+03    0.93781E-05   -0.43109E-05  6520   0.185E-02
   8 F= -.86898892E+03 E0= -.86896827E+03  d E =-.239323E-02  mag=    14.0000
       N       E                     dE             d eps       ncg     rms          rms(c)
DAV:   1    -0.868988449984E+03    0.48136E-03   -0.27991E-01  8832   0.142E+00    0.451E-01
DAV:   2    -0.868990241511E+03   -0.17915E-02   -0.24361E-02 10480   0.490E-01    0.774E-01
DAV:   3    -0.868990367116E+03   -0.12561E-03   -0.94713E-03 10712   0.281E-01    0.943E-01
DAV:   4    -0.868989044228E+03    0.13229E-02   -0.44601E-03  9992   0.174E-01    0.466E-01
DAV:   5    -0.868989034591E+03    0.96370E-05   -0.17383E-03  9440   0.124E-01    0.369E-01
DAV:   6    -0.868989329996E+03   -0.29540E-03   -0.19261E-03 10760   0.110E-01    0.540E-01
DAV:   7    -0.868989000980E+03    0.32902E-03   -0.13566E-03  9800   0.103E-01    0.290E-01
DAV:   8    -0.868989125710E+03   -0.12473E-03   -0.32325E-04  9280   0.588E-02    0.220E-01
DAV:   9    -0.868989097226E+03    0.28485E-04   -0.10473E-04  8128   0.331E-02    0.178E-01
DAV:  10    -0.868989104008E+03   -0.67826E-05   -0.42345E-05  7512   0.215E-02
   9 F= -.86898910E+03 E0= -.86896839E+03  d E =-.257527E-02  mag=    14.0000
       N       E                     dE             d eps       ncg     rms          rms(c)
DAV:   1    -0.868985083715E+03    0.40135E-02   -0.18852E+00  8848   0.322E+00    0.100E+00
DAV:   2    -0.868993755296E+03   -0.86716E-02   -0.14344E-01 10608   0.114E+00    0.113E+00
DAV:   3    -0.868999277464E+03   -0.55222E-02   -0.36814E-02 11296   0.548E-01    0.213E+00
DAV:   4    -0.868990187504E+03    0.90900E-02   -0.12547E-02 10704   0.405E-01    0.508E-01
DAV:   5    -0.868992247301E+03   -0.20598E-02   -0.67187E-03 11480   0.192E-01    0.802E-01
DAV:   6    -0.868991228559E+03    0.10187E-02   -0.45978E-03 11064   0.182E-01    0.597E-01
DAV:   7    -0.868991121320E+03    0.10724E-03   -0.27553E-03 10728   0.132E-01    0.431E-01
DAV:   8    -0.868990912481E+03    0.20884E-03   -0.13098E-03 11168   0.108E-01    0.213E-01
DAV:   9    -0.868990974225E+03   -0.61743E-04   -0.59974E-04 10216   0.749E-02    0.300E-01
DAV:  10    -0.868990827544E+03    0.14668E-03   -0.24840E-04  9344   0.502E-02    0.135E-01
DAV:  11    -0.868990857178E+03   -0.29634E-04   -0.13926E-04  8240   0.307E-02    0.133E-01
DAV:  12    -0.868990842622E+03    0.14556E-04   -0.87308E-05  7488   0.274E-02    0.108E-01
DAV:  13    -0.868990848836E+03   -0.62144E-05   -0.72018E-05  6952   0.265E-02
  10 F= -.86899085E+03 E0= -.86896993E+03  d E =-.174483E-02  mag=    14.0000
       N       E                     dE             d eps       ncg     rms          rms(c)
DAV:   1    -0.868990845215E+03   -0.25930E-05   -0.19954E-03  9536   0.106E-01    0.100E-01
DAV:   2    -0.868991076772E+03   -0.23156E-03   -0.67666E-04 10136   0.750E-02    0.377E-01
DAV:   3    -0.868990812053E+03    0.26472E-03   -0.53888E-04  9176   0.648E-02    0.127E-01
DAV:   4    -0.868990856101E+03   -0.44048E-04   -0.77152E-05  7968   0.276E-02    0.105E-01
DAV:   5    -0.868990842496E+03    0.13606E-04   -0.42478E-05  7168   0.202E-02    0.903E-02
DAV:   6    -0.868990835848E+03    0.66479E-05   -0.71901E-06  6128   0.855E-03
  11 F= -.86899084E+03 E0= -.86896984E+03  d E =-.173184E-02  mag=    14.0000
       N       E                     dE             d eps       ncg     rms          rms(c)
DAV:   1    -0.868983469333E+03    0.73732E-02   -0.11630E+00  8744   0.285E+00    0.352E-01
DAV:   2    -0.868994702613E+03   -0.11233E-01   -0.97789E-02 11984   0.783E-01    0.137E+00
DAV:   3    -0.868991541325E+03    0.31613E-02   -0.10291E-02 11296   0.299E-01    0.335E-01
DAV:   4    -0.868992310018E+03   -0.76869E-03   -0.15786E-03 11608   0.112E-01    0.359E-01
DAV:   5    -0.868992125220E+03    0.18480E-03   -0.10578E-03 10160   0.952E-02    0.265E-01
DAV:   6    -0.868992288661E+03   -0.16344E-03   -0.84752E-04 11072   0.738E-02    0.381E-01
DAV:   7    -0.868992073889E+03    0.21477E-03   -0.69326E-04 10760   0.654E-02    0.228E-01
DAV:   8    -0.868992075090E+03   -0.12013E-05   -0.18228E-04  8728   0.388E-02    0.198E-01
DAV:   9    -0.868992048661E+03    0.26430E-04   -0.71435E-05  7672   0.272E-02    0.165E-01
DAV:  10    -0.868992047563E+03    0.10975E-05   -0.63768E-05  7288   0.232E-02
  12 F= -.86899205E+03 E0= -.86897074E+03  d E =-.121172E-02  mag=    14.0000
       N       E                     dE             d eps       ncg     rms          rms(c)
DAV:   1    -0.868991748252E+03    0.30041E-03   -0.42265E-02  8832   0.546E-01    0.176E-01
DAV:   2    -0.868993391002E+03   -0.16427E-02   -0.51972E-03 11656   0.222E-01    0.874E-01
DAV:   3    -0.868991724801E+03    0.16662E-02   -0.24078E-03 10784   0.170E-01    0.183E-01
DAV:   4    -0.868992045443E+03   -0.32064E-03   -0.32822E-04  9576   0.606E-02    0.167E-01
DAV:   5    -0.868992042764E+03    0.26788E-05   -0.17545E-04  8160   0.410E-02    0.147E-01
DAV:   6    -0.868992023209E+03    0.19555E-04   -0.61127E-05  7744   0.243E-02    0.113E-01
DAV:   7    -0.868992019452E+03    0.37573E-05   -0.12623E-05  6040   0.123E-02
  13 F= -.86899202E+03 E0= -.86897065E+03  d E =-.118360E-02  mag=    14.0000
       N       E                     dE             d eps       ncg     rms          rms(c)
DAV:   1    -0.868986039991E+03    0.59832E-02   -0.10108E+00  8624   0.256E+00    0.351E-01
DAV:   2    -0.868993905103E+03   -0.78651E-02   -0.78087E-02 12144   0.741E-01    0.952E-01
DAV:   3    -0.868992937813E+03    0.96729E-03   -0.82819E-03 11704   0.245E-01    0.549E-01
DAV:   4    -0.868992835356E+03    0.10246E-03   -0.14394E-03 10472   0.126E-01    0.382E-01
DAV:   5    -0.868992742871E+03    0.92485E-04   -0.69036E-04 10872   0.757E-02    0.352E-01
DAV:   6    -0.868992777645E+03   -0.34774E-04   -0.10342E-03 11032   0.894E-02    0.406E-01
DAV:   7    -0.868992680185E+03    0.97460E-04   -0.13172E-03 11352   0.959E-02    0.316E-01
DAV:   8    -0.868992625506E+03    0.54679E-04   -0.62981E-04 10680   0.678E-02    0.210E-01
DAV:   9    -0.868992638029E+03   -0.12523E-04   -0.12857E-04  8704   0.350E-02    0.186E-01
DAV:  10    -0.868992635943E+03    0.20855E-05   -0.40629E-05  7400   0.209E-02
  14 F= -.86899264E+03 E0= -.86897131E+03  d E =-.616491E-03  mag=    14.0000
       N       E                     dE             d eps       ncg     rms          rms(c)
DAV:   1    -0.868992421747E+03    0.21628E-03   -0.32158E-02  8656   0.457E-01    0.192E-01
DAV:   2    -0.868993186529E+03   -0.76478E-03   -0.39321E-03 13008   0.166E-01    0.562E-01
DAV:   3    -0.868992620958E+03    0.56557E-03   -0.70450E-04 11280   0.737E-02    0.268E-01
DAV:   4    -0.868992685027E+03   -0.64069E-04   -0.60182E-05  9040   0.201E-02    0.268E-01
DAV:   5    -0.868992692364E+03   -0.73373E-05   -0.56208E-05  6688   0.219E-02    0.279E-01
DAV:   6    -0.868992715774E+03   -0.23410E-04   -0.11480E-05  6304   0.966E-03    0.281E-01
DAV:   7    -0.868992836423E+03   -0.12065E-03   -0.77071E-04 11760   0.729E-02    0.396E-01
DAV:   8    -0.868992637672E+03    0.19875E-03   -0.10232E-03 11856   0.789E-02    0.213E-01
DAV:   9    -0.868992737364E+03   -0.99692E-04   -0.46538E-04 10488   0.575E-02    0.228E-01
DAV:  10    -0.868992656564E+03    0.80799E-04   -0.16407E-04  9256   0.433E-02    0.118E-01
DAV:  11    -0.868992652417E+03    0.41472E-05   -0.57616E-05  6656   0.213E-02
  15 F= -.86899265E+03 E0= -.86897124E+03  d E =-.632966E-03  mag=    14.0000
