       N       E                     dE             d eps       ncg     rms          ort
DAV:   1     0.728442007905E+04    0.72844E+04   -0.28893E+05  1296   0.173E+03
DAV:   2     0.614101000280E+03   -0.66703E+04   -0.64305E+04  1296   0.525E+02
DAV:   3    -0.663450380525E+03   -0.12776E+04   -0.12384E+04  1296   0.206E+02
DAV:   4    -0.741043173516E+03   -0.77593E+02   -0.75684E+02  1296   0.587E+01
DAV:   5    -0.745072741373E+03   -0.40296E+01   -0.38749E+01  1296   0.116E+01
SDA:   6     0.414092303009E+02    0.78648E+03   -0.38749E+01  1296   0.430E+04 0.000E+00
CGA:   7    -0.449079099360E+03   -0.49049E+03   -0.51565E+03  1296   0.474E+03 0.124E+03
CGA:   8    -0.491974274839E+03   -0.42895E+02   -0.50211E+02  1296   0.337E+03-0.333E+02
CGA:   9    -0.520945476941E+03   -0.28971E+02   -0.31401E+02  1296   0.240E+03 0.597E+01
CGA:  10    -0.538910306176E+03   -0.17965E+02   -0.19623E+02  1296   0.131E+03-0.604E+02
CGA:  11    -0.548107966788E+03   -0.91977E+01   -0.86200E+01  1296   0.678E+02 0.366E+01
CGA:  12    -0.552024031232E+03   -0.39161E+01   -0.34875E+01  1296   0.621E+02-0.480E+01
CGA:  13    -0.552686272303E+03   -0.66224E+00   -0.25122E+01  1296   0.102E+03-0.405E+02
CGA:  14    -0.555282377192E+03   -0.25961E+01   -0.68613E+01  1296   0.403E+02-0.311E+02
CGA:  15    -0.557566336085E+03   -0.22840E+01   -0.16894E+01  1296   0.160E+02 0.820E+01
CGA:  16    -0.558256756116E+03   -0.69042E+00   -0.77177E+00  1296   0.995E+01-0.446E+01
CGA:  17    -0.558927122683E+03   -0.67037E+00   -0.71482E+00  1296   0.997E+01 0.125E+00
CGA:  18    -0.559586621635E+03   -0.65950E+00   -0.83313E+00  1296   0.363E+01-0.146E+00
CGA:  19    -0.559771315950E+03   -0.18469E+00   -0.19857E+00  1296   0.154E+01-0.182E+00
CGA:  20    -0.559970095744E+03   -0.19878E+00   -0.19934E+00  1296   0.168E+01 0.104E+00
CGA:  21    -0.560178352287E+03   -0.20826E+00   -0.20911E+00  1296   0.118E+01 0.564E-02
CGA:  22    -0.560290381517E+03   -0.11203E+00   -0.11310E+00  1296   0.522E+00 0.338E-02
CGA:  23    -0.560346080951E+03   -0.55699E-01   -0.55584E-01  1296   0.375E+00-0.658E-03
CGA:  24    -0.560390908591E+03   -0.44828E-01   -0.45103E-01  1296   0.282E+00 0.805E-02
CGA:  25    -0.560430892246E+03   -0.39984E-01   -0.39957E-01  1296   0.143E+00 0.220E-02
CGA:  26    -0.560450725663E+03   -0.19833E-01   -0.19841E-01  1296   0.130E+00-0.113E-02
CGA:  27    -0.560467475106E+03   -0.16749E-01   -0.16746E-01  1296   0.101E+00-0.714E-03
CGA:  28    -0.560478464208E+03   -0.10989E-01   -0.10915E-01  1296   0.529E-01-0.113E-02
CGA:  29    -0.560486667384E+03   -0.82032E-02   -0.82189E-02  1296   0.462E-01-0.576E-03
CGA:  30    -0.560492054166E+03   -0.53868E-02   -0.53678E-02  1296   0.282E-01-0.577E-03
CGA:  31    -0.560495932078E+03   -0.38779E-02   -0.38791E-02  1296   0.200E-01-0.118E-03
CGA:  32    -0.560498656381E+03   -0.27243E-02   -0.27246E-02  1296   0.179E-01-0.898E-06
CGA:  33    -0.560500388960E+03   -0.17326E-02   -0.17107E-02  1296   0.117E-01 0.244E-04
CGA:  34    -0.560501871823E+03   -0.14829E-02   -0.14837E-02  1296   0.786E-02 0.138E-03
CGA:  35    -0.560502900881E+03   -0.10291E-02   -0.10291E-02  1296   0.554E-02 0.671E-04
CGA:  36    -0.560503587934E+03   -0.68705E-03   -0.68636E-03  1296   0.464E-02-0.836E-06
CGA:  37    -0.560504056389E+03   -0.46846E-03   -0.47102E-03  1296   0.283E-02 0.446E-04
CGA:  38    -0.560504410887E+03   -0.35450E-03   -0.35459E-03  1296   0.273E-02 0.141E-04
CGA:  39    -0.560504726888E+03   -0.31600E-03   -0.30905E-03  1296   0.250E-02-0.130E-03
CGA:  40    -0.560504967513E+03   -0.24063E-03   -0.20779E-03  1296   0.193E-02 0.291E-04
CGA:  41    -0.560505076207E+03   -0.10869E-03   -0.10321E-03  1296   0.131E-02 0.683E-04
CGA:  42    -0.560505164836E+03   -0.88629E-04   -0.89518E-04  1296   0.973E-03-0.101E-04
CGA:  43    -0.560505217164E+03   -0.52327E-04   -0.50993E-04  1296   0.569E-03 0.829E-05
SDA:  44    -0.560505260544E+03   -0.43380E-04   -0.42746E-04  1296   0.690E-03-0.553E-05
CGA:  45    -0.560505322951E+03   -0.62407E-04   -0.62314E-04  1296   0.634E-03-0.395E-05
CGA:  46    -0.560505468187E+03   -0.14524E-03   -0.14760E-03  1296   0.120E-02-0.197E-04
CGA:  47    -0.560505596225E+03   -0.12804E-03   -0.12798E-03  1296   0.522E-03-0.108E-04
CGA:  48    -0.560505636780E+03   -0.40555E-04   -0.40648E-04  1296   0.247E-03-0.313E-05
CGA:  49    -0.560505665298E+03   -0.28518E-04   -0.28516E-04  1296   0.107E-03-0.285E-05
CGA:  50    -0.560505682716E+03   -0.17418E-04   -0.17485E-04  1296   0.826E-04-0.137E-05
CGA:  51    -0.560505697993E+03   -0.15277E-04   -0.15339E-04  1296   0.631E-04-0.968E-06
CGA:  52    -0.560505706235E+03   -0.82420E-05   -0.82259E-05  1296   0.675E-04 0.163E-05
   1 F= -.56050571E+03 E0= -.56049374E+03  d E =-.560506E+03  mag=     8.0000
       N       E                     dE             d eps       ncg     rms          ort
SDA:   1    -0.560500464485E+03    0.52335E-02    0.00000E+00  1296   0.348E-01 0.000E+00
CGA:   2    -0.560502622752E+03   -0.21583E-02   -0.21646E-02  1296   0.175E-01-0.307E-04
CGA:   3    -0.560504284230E+03   -0.16615E-02   -0.16621E-02  1296   0.701E-02 0.272E-04
CGA:   4    -0.560505285418E+03   -0.10012E-02   -0.10012E-02  1296   0.422E-02 0.279E-05
CGA:   5    -0.560505785693E+03   -0.50027E-03   -0.50027E-03  1296   0.107E-02-0.222E-05
CGA:   6    -0.560505874116E+03   -0.88424E-04   -0.88404E-04  1296   0.670E-03-0.500E-06
CGA:   7    -0.560505930864E+03   -0.56748E-04   -0.56821E-04  1296   0.252E-03 0.246E-05
CGA:   8    -0.560505955770E+03   -0.24906E-04   -0.24954E-04  1296   0.694E-04 0.294E-05
CGA:   9    -0.560505965343E+03   -0.95731E-05   -0.95343E-05  1296   0.485E-04 0.184E-05
   2 F= -.56050597E+03 E0= -.56049396E+03  d E =-.259108E-03  mag=     8.0000
