       N       E                     dE             d eps       ncg     rms          ort
DAV:   1     0.965211445383E+04    0.96521E+04   -0.32126E+05  3248   0.180E+03
DAV:   2     0.103008392773E+04   -0.86220E+04   -0.81926E+04  3248   0.554E+02
DAV:   3    -0.494012113470E+03   -0.15241E+04   -0.14128E+04  3248   0.227E+02
DAV:   4    -0.690297716429E+03   -0.19629E+03   -0.18866E+03  3248   0.924E+01
DAV:   5    -0.700642978504E+03   -0.10345E+02   -0.10018E+02  3248   0.257E+01
SDA:   6    -0.195072798364E+03    0.50557E+03   -0.10018E+02  3248   0.302E+04 0.000E+00
CGA:   7    -0.491866722545E+03   -0.29679E+03   -0.34881E+03  3248   0.596E+03 0.392E+02
CGA:   8    -0.521996545884E+03   -0.30130E+02   -0.35311E+02  3248   0.201E+03-0.231E+01
CGA:   9    -0.537980868096E+03   -0.15984E+02   -0.13753E+02  3248   0.215E+03-0.761E+01
CGA:  10    -0.538673712968E+03   -0.69284E+00   -0.11884E+02  3248   0.243E+03-0.667E+02
CGA:  11    -0.543221555317E+03   -0.45478E+01   -0.80845E+01  3248   0.292E+03-0.122E+03
CGA:  12    -0.542251104967E+03    0.97045E+00   -0.53841E+01  3248   0.210E+03-0.121E+03
CGA:  13    -0.547048286637E+03   -0.47972E+01   -0.64648E+01  3248   0.175E+03-0.533E+02
CGA:  14    -0.547598506687E+03   -0.55022E+00   -0.80548E+01  3248   0.264E+03-0.369E+02
CGA:  15    -0.549926570651E+03   -0.23281E+01   -0.74473E+01  3248   0.222E+03-0.195E+03
CGA:  16    -0.553008207130E+03   -0.30816E+01   -0.13346E+02  3248   0.198E+03-0.828E+02
CGA:  17    -0.558116414735E+03   -0.51082E+01   -0.82176E+01  3248   0.176E+03 0.225E+02
CGA:  18    -0.559681378660E+03   -0.15650E+01   -0.10502E+02  3248   0.233E+03-0.610E+02
CGA:  19    -0.557477562437E+03    0.22038E+01   -0.67598E+01  3248   0.163E+03-0.762E+02
CGA:  20    -0.563571084653E+03   -0.60935E+01   -0.62279E+01  3248   0.378E+02-0.286E+02
CGA:  21    -0.565203943441E+03   -0.16329E+01   -0.11283E+01  3248   0.269E+02 0.146E+02
CGA:  22    -0.566466764812E+03   -0.12628E+01   -0.10239E+01  3248   0.130E+02-0.124E+02
CGA:  23    -0.566707705877E+03   -0.24094E+00   -0.37127E+00  3248   0.244E+02-0.835E+00
CGA:  24    -0.567668560683E+03   -0.96085E+00   -0.95975E+00  3248   0.103E+02 0.401E+00
CGA:  25    -0.567932071808E+03   -0.26351E+00   -0.40596E+00  3248   0.634E+01-0.412E+01
CGA:  26    -0.568151081621E+03   -0.21901E+00   -0.23034E+00  3248   0.643E+01-0.494E-01
CGA:  27    -0.568539340794E+03   -0.38826E+00   -0.37644E+00  3248   0.341E+01 0.179E+00
CGA:  28    -0.568684317842E+03   -0.14498E+00   -0.15200E+00  3248   0.126E+01-0.140E+00
CGA:  29    -0.568747068299E+03   -0.62750E-01   -0.65815E-01  3248   0.923E+00-0.254E-01
CGA:  30    -0.568829340629E+03   -0.82272E-01   -0.82791E-01  3248   0.714E+00 0.413E-01
CGA:  31    -0.568886339216E+03   -0.56999E-01   -0.56766E-01  3248   0.497E+00-0.786E-03
CGA:  32    -0.568926666517E+03   -0.40327E-01   -0.40380E-01  3248   0.328E+00 0.124E-02
CGA:  33    -0.568950179598E+03   -0.23513E-01   -0.24305E-01  3248   0.191E+00 0.862E-02
CGA:  34    -0.568967959762E+03   -0.17780E-01   -0.17804E-01  3248   0.117E+00 0.309E-02
CGA:  35    -0.568982057333E+03   -0.14098E-01   -0.14152E-01  3248   0.924E-01-0.178E-02
CGA:  36    -0.568990636030E+03   -0.85787E-02   -0.85810E-02  3248   0.621E-01 0.108E-02
CGA:  37    -0.568998124801E+03   -0.74888E-02   -0.74637E-02  3248   0.399E-01 0.601E-03
CGA:  38    -0.569002509426E+03   -0.43846E-02   -0.43944E-02  3248   0.338E-01-0.548E-03
CGA:  39    -0.569006957064E+03   -0.44476E-02   -0.44471E-02  3248   0.304E-01-0.290E-04
CGA:  40    -0.569010359504E+03   -0.34024E-02   -0.34018E-02  3248   0.205E-01 0.114E-04
CGA:  41    -0.569012831626E+03   -0.24721E-02   -0.24727E-02  3248   0.202E-01-0.917E-05
CGA:  42    -0.569015288038E+03   -0.24564E-02   -0.24649E-02  3248   0.107E-01-0.259E-03
CGA:  43    -0.569016550329E+03   -0.12623E-02   -0.12674E-02  3248   0.120E-01-0.177E-03
CGA:  44    -0.569017910627E+03   -0.13603E-02   -0.13618E-02  3248   0.694E-02-0.810E-04
CGA:  45    -0.569018727340E+03   -0.81671E-03   -0.81848E-03  3248   0.698E-02-0.951E-04
SDA:  46    -0.569019436648E+03   -0.70931E-03   -0.70927E-03  3248   0.491E-02-0.675E-04
CGA:  47    -0.569019965297E+03   -0.52865E-03   -0.52877E-03  3248   0.272E-02-0.271E-04
CGA:  48    -0.569020634945E+03   -0.66965E-03   -0.68064E-03  3248   0.320E-02-0.754E-04
CGA:  49    -0.569020944078E+03   -0.30913E-03   -0.30882E-03  3248   0.150E-02-0.333E-04
CGA:  50    -0.569021233240E+03   -0.28916E-03   -0.29212E-03  3248   0.149E-02-0.346E-04
CGA:  51    -0.569021399189E+03   -0.16595E-03   -0.16594E-03  3248   0.507E-03-0.131E-04
CGA:  52    -0.569021493415E+03   -0.94226E-04   -0.93723E-04  3248   0.766E-03 0.667E-05
CGA:  53    -0.569021593225E+03   -0.99810E-04   -0.99709E-04  3248   0.326E-03 0.105E-04
CGA:  54    -0.569021642219E+03   -0.48994E-04   -0.48778E-04  3248   0.274E-03 0.746E-05
CGA:  55    -0.569021701412E+03   -0.59193E-04   -0.58328E-04  3248   0.206E-03 0.978E-05
CGA:  56    -0.569021754750E+03   -0.53338E-04   -0.52823E-04  3248   0.253E-03 0.409E-05
CGA:  57    -0.569021790367E+03   -0.35617E-04   -0.35632E-04  3248   0.234E-03-0.230E-05
CGA:  58    -0.569021823111E+03   -0.32743E-04   -0.32834E-04  3248   0.163E-03-0.897E-05
CGA:  59    -0.569021845016E+03   -0.21905E-04   -0.21993E-04  3248   0.689E-04-0.106E-04
CGA:  60    -0.569021860391E+03   -0.15375E-04   -0.17145E-04  3248   0.439E-04-0.133E-04
CGA:  61    -0.569021865557E+03   -0.51660E-05   -0.51949E-05  3248   0.283E-04-0.386E-05
   1 F= -.56902187E+03 E0= -.56900881E+03  d E =-.569022E+03  mag=    70.0000
       N       E                     dE             d eps       ncg     rms          ort
SDA:   1    -0.569024386260E+03   -0.25259E-02    0.00000E+00  3248   0.153E-01 0.000E+00
CGA:   2    -0.569025419762E+03   -0.10335E-02   -0.10256E-02  3248   0.693E-02 0.695E-04
CGA:   3    -0.569026578532E+03   -0.11588E-02   -0.11584E-02  3248   0.349E-02 0.997E-05
CGA:   4    -0.569026959552E+03   -0.38102E-03   -0.38064E-03  3248   0.110E-02-0.123E-04
CGA:   5    -0.569027119259E+03   -0.15971E-03   -0.15985E-03  3248   0.549E-03-0.140E-04
CGA:   6    -0.569027176033E+03   -0.56774E-04   -0.56741E-04  3248   0.159E-03-0.146E-05
CGA:   7    -0.569027194906E+03   -0.18873E-04   -0.18935E-04  3248   0.736E-04 0.406E-05
CGA:   8    -0.569027201456E+03   -0.65494E-05   -0.67042E-05  3248   0.238E-04 0.344E-05
   2 F= -.56902720E+03 E0= -.56901416E+03  d E =-.533590E-02  mag=    70.0000
       N       E                     dE             d eps       ncg     rms          ort
SDA:   1    -0.552092708806E+03    0.16934E+02    0.00000E+00  3248   0.543E+02 0.000E+00
CGA:   2    -0.560764448349E+03   -0.86717E+01   -0.86795E+01  3248   0.483E+02 0.268E+00
CGA:   3    -0.565940236873E+03   -0.51758E+01   -0.52276E+01  3248   0.188E+02-0.176E+00
CGA:   4    -0.567759509331E+03   -0.18193E+01   -0.16969E+01  3248   0.744E+01-0.465E+00
CGA:   5    -0.568806905322E+03   -0.10474E+01   -0.10450E+01  3248   0.239E+01 0.101E+00
CGA:   6    -0.569097999382E+03   -0.29109E+00   -0.29056E+00  3248   0.105E+01-0.224E-01
CGA:   7    -0.569194035342E+03   -0.96036E-01   -0.96254E-01  3248   0.474E+00 0.273E-03
CGA:   8    -0.569235962147E+03   -0.41927E-01   -0.41886E-01  3248   0.143E+00 0.334E-03
CGA:   9    -0.569258331393E+03   -0.22369E-01   -0.22286E-01  3248   0.860E-01 0.203E-02
CGA:  10    -0.569269102421E+03   -0.10771E-01   -0.10774E-01  3248   0.486E-01 0.441E-03
CGA:  11    -0.569273853697E+03   -0.47513E-02   -0.47739E-02  3248   0.219E-01 0.168E-03
CGA:  12    -0.569276988293E+03   -0.31346E-02   -0.31318E-02  3248   0.146E-01 0.810E-04
CGA:  13    -0.569278912432E+03   -0.19241E-02   -0.19247E-02  3248   0.719E-02-0.104E-03
CGA:  14    -0.569279825890E+03   -0.91346E-03   -0.91343E-03  3248   0.494E-02-0.456E-05
CGA:  15    -0.569280445691E+03   -0.61980E-03   -0.61982E-03  3248   0.253E-02 0.364E-05
CGA:  16    -0.569280824145E+03   -0.37845E-03   -0.37766E-03  3248   0.167E-02 0.336E-04
CGA:  17    -0.569281034599E+03   -0.21045E-03   -0.21059E-03  3248   0.897E-03 0.354E-04
CGA:  18    -0.569281161161E+03   -0.12656E-03   -0.12634E-03  3248   0.761E-03 0.213E-04
CGA:  19    -0.569281281094E+03   -0.11993E-03   -0.11955E-03  3248   0.466E-03 0.149E-04
CGA:  20    -0.569281362491E+03   -0.81397E-04   -0.81457E-04  3248   0.394E-03-0.147E-05
CGA:  21    -0.569281425671E+03   -0.63179E-04   -0.63430E-04  3248   0.334E-03-0.852E-05
CGA:  22    -0.569281466780E+03   -0.41109E-04   -0.41037E-04  3248   0.247E-03-0.943E-05
CGA:  23    -0.569281505455E+03   -0.38676E-04   -0.38942E-04  3248   0.132E-03-0.902E-05
CGA:  24    -0.569281524600E+03   -0.19145E-04   -0.19192E-04  3248   0.919E-04-0.292E-05
CGA:  25    -0.569281536228E+03   -0.11628E-04   -0.11628E-04  3248   0.633E-04 0.237E-07
CGA:  26    -0.569281544877E+03   -0.86491E-05   -0.86470E-05  3248   0.335E-04 0.166E-05
   3 F= -.56928154E+03 E0= -.56926841E+03  d E =-.254343E+00  mag=    70.0000
       N       E                     dE             d eps       ncg     rms          ort
SDA:   1    -0.561838210948E+03    0.74433E+01    0.00000E+00  3248   0.230E+02 0.000E+00
CGA:   2    -0.565716020975E+03   -0.38778E+01   -0.39040E+01  3248   0.220E+02-0.521E+00
CGA:   3    -0.567908538532E+03   -0.21925E+01   -0.22349E+01  3248   0.873E+01 0.736E-01
CGA:   4    -0.568730465078E+03   -0.82193E+00   -0.80258E+00  3248   0.310E+01-0.371E-01
CGA:   5    -0.569171991468E+03   -0.44153E+00   -0.44151E+00  3248   0.101E+01 0.136E-02
CGA:   6    -0.569287409851E+03   -0.11542E+00   -0.11549E+00  3248   0.419E+00 0.833E-03
CGA:   7    -0.569328481526E+03   -0.41072E-01   -0.41217E-01  3248   0.182E+00 0.659E-03
CGA:   8    -0.569346946038E+03   -0.18465E-01   -0.18419E-01  3248   0.624E-01-0.209E-03
CGA:   9    -0.569356503322E+03   -0.95573E-02   -0.95468E-02  3248   0.349E-01 0.317E-03
CGA:  10    -0.569360543572E+03   -0.40402E-02   -0.40421E-02  3248   0.184E-01 0.530E-04
CGA:  11    -0.569362578605E+03   -0.20350E-02   -0.20377E-02  3248   0.971E-02 0.447E-04
CGA:  12    -0.569364062480E+03   -0.14839E-02   -0.14833E-02  3248   0.600E-02 0.108E-04
CGA:  13    -0.569364937977E+03   -0.87550E-03   -0.87563E-03  3248   0.362E-02-0.134E-04
CGA:  14    -0.569365389702E+03   -0.45173E-03   -0.45173E-03  3248   0.263E-02-0.460E-05
CGA:  15    -0.569365750870E+03   -0.36117E-03   -0.36108E-03  3248   0.138E-02 0.966E-05
CGA:  16    -0.569365990826E+03   -0.23996E-03   -0.23933E-03  3248   0.101E-02 0.150E-04
CGA:  17    -0.569366118679E+03   -0.12785E-03   -0.12796E-03  3248   0.694E-03 0.129E-04
CGA:  18    -0.569366224455E+03   -0.10578E-03   -0.10564E-03  3248   0.516E-03 0.784E-05
CGA:  19    -0.569366306762E+03   -0.82307E-04   -0.82262E-04  3248   0.323E-03 0.183E-05
CGA:  20    -0.569366364191E+03   -0.57428E-04   -0.57580E-04  3248   0.337E-03-0.360E-05
CGA:  21    -0.569366402721E+03   -0.38530E-04   -0.38452E-04  3248   0.166E-03-0.370E-05
CGA:  22    -0.569366432542E+03   -0.29821E-04   -0.30012E-04  3248   0.124E-03-0.403E-05
CGA:  23    -0.569366448622E+03   -0.16080E-04   -0.16072E-04  3248   0.667E-04-0.160E-05
CGA:  24    -0.569366456740E+03   -0.81178E-05   -0.81080E-05  3248   0.442E-04-0.617E-06
   4 F= -.56936646E+03 E0= -.56935430E+03  d E =-.849119E-01  mag=    70.0000
       N       E                     dE             d eps       ncg     rms          ort
SDA:   1    -0.542182517820E+03    0.27184E+02    0.00000E+00  3248   0.867E+02 0.000E+00
CGA:   2    -0.557766507604E+03   -0.15584E+02   -0.15611E+02  3248   0.616E+02-0.408E+00
CGA:   3    -0.564471237725E+03   -0.67047E+01   -0.68238E+01  3248   0.260E+02 0.447E+00
CGA:   4    -0.567212825897E+03   -0.27416E+01   -0.26146E+01  3248   0.123E+02-0.758E+00
CGA:   5    -0.568713892434E+03   -0.15011E+01   -0.15024E+01  3248   0.377E+01 0.436E-01
CGA:   6    -0.569107206992E+03   -0.39331E+00   -0.39167E+00  3248   0.182E+01-0.295E-01
CGA:   7    -0.569293815817E+03   -0.18661E+00   -0.18691E+00  3248   0.461E+00 0.307E-03
CGA:   8    -0.569361501009E+03   -0.67685E-01   -0.67754E-01  3248   0.311E+00-0.310E-02
CGA:   9    -0.569390638049E+03   -0.29137E-01   -0.29473E-01  3248   0.153E+00 0.719E-03
CGA:  10    -0.569410849461E+03   -0.20211E-01   -0.20212E-01  3248   0.642E-01 0.122E-02
CGA:  11    -0.569420041851E+03   -0.91924E-02   -0.91942E-02  3248   0.488E-01-0.722E-04
CGA:  12    -0.569426857393E+03   -0.68155E-02   -0.68121E-02  3248   0.276E-01 0.314E-03
CGA:  13    -0.569430673861E+03   -0.38165E-02   -0.38148E-02  3248   0.181E-01 0.233E-03
CGA:  14    -0.569433264655E+03   -0.25908E-02   -0.25903E-02  3248   0.139E-01 0.395E-04
CGA:  15    -0.569434998912E+03   -0.17343E-02   -0.17347E-02  3248   0.749E-02 0.130E-04
CGA:  16    -0.569436338545E+03   -0.13396E-02   -0.13417E-02  3248   0.558E-02-0.424E-04
CGA:  17    -0.569437098290E+03   -0.75975E-03   -0.75975E-03  3248   0.369E-02-0.982E-05
CGA:  18    -0.569437738944E+03   -0.64065E-03   -0.64108E-03  3248   0.347E-02-0.103E-04
CGA:  19    -0.569438178180E+03   -0.43924E-03   -0.43936E-03  3248   0.192E-02 0.930E-05
CGA:  20    -0.569438500358E+03   -0.32218E-03   -0.32166E-03  3248   0.170E-02 0.165E-04
CGA:  21    -0.569438729083E+03   -0.22872E-03   -0.22878E-03  3248   0.862E-03 0.117E-04
CGA:  22    -0.569438879954E+03   -0.15087E-03   -0.15076E-03  3248   0.592E-03 0.348E-05
CGA:  23    -0.569438953740E+03   -0.73786E-04   -0.73754E-04  3248   0.352E-03-0.207E-05
CGA:  24    -0.569438998528E+03   -0.44788E-04   -0.44718E-04  3248   0.181E-03-0.590E-05
CGA:  25    -0.569439026629E+03   -0.28100E-04   -0.28237E-04  3248   0.131E-03-0.669E-05
CGA:  26    -0.569439042799E+03   -0.16170E-04   -0.16108E-04  3248   0.717E-04-0.535E-05
CGA:  27    -0.569439054977E+03   -0.12178E-04   -0.12310E-04  3248   0.513E-04-0.329E-05
CGA:  28    -0.569439061322E+03   -0.63458E-05   -0.63322E-05  3248   0.375E-04-0.118E-05
   5 F= -.56943906E+03 E0= -.56942811E+03  d E =-.726046E-01  mag=    70.0000
       N       E                     dE             d eps       ncg     rms          ort
SDA:   1    -0.563397840001E+03    0.60412E+01    0.00000E+00  3248   0.215E+02 0.000E+00
CGA:   2    -0.566553018566E+03   -0.31552E+01   -0.31564E+01  3248   0.143E+02-0.105E+00
CGA:   3    -0.568389536232E+03   -0.18365E+01   -0.18422E+01  3248   0.638E+01 0.202E+00
CGA:   4    -0.568964435684E+03   -0.57490E+00   -0.55541E+00  3248   0.277E+01-0.132E-01
CGA:   5    -0.569359978749E+03   -0.39554E+00   -0.39552E+00  3248   0.715E+00 0.207E-02
CGA:   6    -0.569458272779E+03   -0.98294E-01   -0.98299E-01  3248   0.394E+00 0.394E-02
CGA:   7    -0.569493696984E+03   -0.35424E-01   -0.35343E-01  3248   0.112E+00-0.384E-04
CGA:   8    -0.569507257284E+03   -0.13560E-01   -0.13544E-01  3248   0.586E-01-0.321E-03
CGA:   9    -0.569513587990E+03   -0.63307E-02   -0.63340E-02  3248   0.310E-01 0.113E-03
CGA:  10    -0.569517874559E+03   -0.42866E-02   -0.42857E-02  3248   0.115E-01 0.137E-03
CGA:  11    -0.569519527437E+03   -0.16529E-02   -0.16529E-02  3248   0.879E-02-0.579E-05
CGA:  12    -0.569520587666E+03   -0.10602E-02   -0.10595E-02  3248   0.504E-02-0.444E-04
CGA:  13    -0.569521188887E+03   -0.60122E-03   -0.60106E-03  3248   0.265E-02-0.259E-04
CGA:  14    -0.569521600920E+03   -0.41203E-03   -0.41259E-03  3248   0.167E-02-0.227E-04
CGA:  15    -0.569521825822E+03   -0.22490E-03   -0.22489E-03  3248   0.113E-02 0.714E-05
CGA:  16    -0.569521979303E+03   -0.15348E-03   -0.15346E-03  3248   0.702E-03 0.181E-04
CGA:  17    -0.569522069595E+03   -0.90292E-04   -0.90422E-04  3248   0.457E-03 0.170E-04
CGA:  18    -0.569522141418E+03   -0.71822E-04   -0.71588E-04  3248   0.338E-03 0.122E-04
CGA:  19    -0.569522195586E+03   -0.54168E-04   -0.54099E-04  3248   0.204E-03 0.325E-05
CGA:  20    -0.569522228316E+03   -0.32731E-04   -0.32831E-04  3248   0.218E-03-0.422E-05
CGA:  21    -0.569522254836E+03   -0.26520E-04   -0.26434E-04  3248   0.113E-03-0.654E-05
CGA:  22    -0.569522274167E+03   -0.19331E-04   -0.19651E-04  3248   0.939E-04-0.742E-05
CGA:  23    -0.569522285039E+03   -0.10872E-04   -0.10826E-04  3248   0.468E-04-0.305E-05
CGA:  24    -0.569522291828E+03   -0.67887E-05   -0.67929E-05  3248   0.358E-04-0.360E-06
   6 F= -.56952229E+03 E0= -.56951145E+03  d E =-.832305E-01  mag=    70.0000
       N       E                     dE             d eps       ncg     rms          ort
SDA:   1    -0.569133190746E+03    0.38909E+00    0.00000E+00  3248   0.141E+01 0.000E+00
CGA:   2    -0.569338562597E+03   -0.20537E+00   -0.20538E+00  3248   0.874E+00-0.420E-03
CGA:   3    -0.569473509550E+03   -0.13495E+00   -0.13490E+00  3248   0.336E+00 0.166E-02
CGA:   4    -0.569506185228E+03   -0.32676E-01   -0.32436E-01  3248   0.217E+00-0.521E-03
CGA:   5    -0.569528546160E+03   -0.22361E-01   -0.22392E-01  3248   0.398E-01 0.105E-03
CGA:   6    -0.569535275423E+03   -0.67293E-02   -0.67290E-02  3248   0.150E-01 0.121E-04
CGA:   7    -0.569536741058E+03   -0.14656E-02   -0.14671E-02  3248   0.807E-02 0.185E-04
CGA:   8    -0.569537577786E+03   -0.83673E-03   -0.83664E-03  3248   0.271E-02 0.109E-04
CGA:   9    -0.569538020845E+03   -0.44306E-03   -0.44278E-03  3248   0.139E-02 0.931E-05
CGA:  10    -0.569538164366E+03   -0.14352E-03   -0.14347E-03  3248   0.786E-03-0.447E-06
CGA:  11    -0.569538278647E+03   -0.11428E-03   -0.11431E-03  3248   0.458E-03-0.271E-05
CGA:  12    -0.569538337562E+03   -0.58915E-04   -0.58894E-04  3248   0.309E-03-0.433E-05
CGA:  13    -0.569538379151E+03   -0.41589E-04   -0.41597E-04  3248   0.188E-03-0.377E-05
CGA:  14    -0.569538405559E+03   -0.26408E-04   -0.26412E-04  3248   0.121E-03-0.402E-06
CGA:  15    -0.569538422834E+03   -0.17275E-04   -0.17255E-04  3248   0.905E-04 0.238E-05
CGA:  16    -0.569538433946E+03   -0.11112E-04   -0.11143E-04  3248   0.509E-04 0.225E-05
CGA:  17    -0.569538442411E+03   -0.84658E-05   -0.84142E-05  3248   0.342E-04 0.191E-05
   7 F= -.56953844E+03 E0= -.56952781E+03  d E =-.161506E-01  mag=    70.0000
       N       E                     dE             d eps       ncg     rms          ort
SDA:   1    -0.546159646824E+03    0.23379E+02    0.00000E+00  3248   0.771E+02 0.000E+00
CGA:   2    -0.557786907605E+03   -0.11627E+02   -0.11620E+02  3248   0.589E+02 0.511E+00
CGA:   3    -0.564474237026E+03   -0.66873E+01   -0.68332E+01  3248   0.292E+02 0.138E+01
CGA:   4    -0.567530825910E+03   -0.30566E+01   -0.28529E+01  3248   0.979E+01-0.908E+00
CGA:   5    -0.568929749387E+03   -0.13989E+01   -0.14012E+01  3248   0.284E+01-0.952E-01
CGA:   6    -0.569238655329E+03   -0.30891E+00   -0.30856E+00  3248   0.198E+01-0.723E-02
CGA:   7    -0.569403040919E+03   -0.16439E+00   -0.16834E+00  3248   0.499E+00-0.959E-02
CGA:   8    -0.569467837472E+03   -0.64797E-01   -0.64790E-01  3248   0.252E+00-0.660E-02
CGA:   9    -0.569493650363E+03   -0.25813E-01   -0.26113E-01  3248   0.141E+00 0.279E-02
CGA:  10    -0.569510273551E+03   -0.16623E-01   -0.16634E-01  3248   0.728E-01 0.269E-03
CGA:  11    -0.569518877772E+03   -0.86042E-02   -0.86226E-02  3248   0.330E-01 0.704E-03
CGA:  12    -0.569523950798E+03   -0.50730E-02   -0.50690E-02  3248   0.289E-01 0.133E-03
CGA:  13    -0.569527044255E+03   -0.30935E-02   -0.31147E-02  3248   0.122E-01 0.326E-03
CGA:  14    -0.569529176768E+03   -0.21325E-02   -0.21320E-02  3248   0.949E-02 0.180E-04
CGA:  15    -0.569530319745E+03   -0.11430E-02   -0.11444E-02  3248   0.583E-02 0.610E-04
CGA:  16    -0.569531188494E+03   -0.86875E-03   -0.86875E-03  3248   0.368E-02-0.279E-05
CGA:  17    -0.569531744859E+03   -0.55636E-03   -0.55611E-03  3248   0.259E-02 0.367E-05
CGA:  18    -0.569532073330E+03   -0.32847E-03   -0.32843E-03  3248   0.168E-02-0.816E-05
CGA:  19    -0.569532362069E+03   -0.28874E-03   -0.28883E-03  3248   0.114E-02-0.324E-05
CGA:  20    -0.569532516357E+03   -0.15429E-03   -0.15429E-03  3248   0.835E-03 0.513E-06
CGA:  21    -0.569532637450E+03   -0.12109E-03   -0.12102E-03  3248   0.531E-03 0.626E-05
CGA:  22    -0.569532714970E+03   -0.77520E-04   -0.77484E-04  3248   0.307E-03 0.375E-05
CGA:  23    -0.569532763026E+03   -0.48056E-04   -0.48026E-04  3248   0.244E-03 0.147E-05
CGA:  24    -0.569532791833E+03   -0.28807E-04   -0.28775E-04  3248   0.115E-03-0.143E-05
CGA:  25    -0.569532813585E+03   -0.21752E-04   -0.21970E-04  3248   0.941E-04-0.383E-05
CGA:  26    -0.569532824418E+03   -0.10834E-04   -0.10775E-04  3248   0.622E-04-0.293E-05
CGA:  27    -0.569532835846E+03   -0.11428E-04   -0.11620E-04  3248   0.491E-04-0.342E-05
CGA:  28    -0.569532842174E+03   -0.63278E-05   -0.63222E-05  3248   0.380E-04-0.145E-05
   8 F= -.56953284E+03 E0= -.56952301E+03  d E =0.560024E-02  mag=    70.0000
       N       E                     dE             d eps       ncg     rms          ort
SDA:   1    -0.551465598748E+03    0.18067E+02    0.00000E+00  3248   0.697E+02 0.000E+00
CGA:   2    -0.560722247306E+03   -0.92566E+01   -0.92454E+01  3248   0.399E+02-0.625E+00
CGA:   3    -0.565734452221E+03   -0.50122E+01   -0.50792E+01  3248   0.189E+02 0.230E+01
CGA:   4    -0.567850711941E+03   -0.21163E+01   -0.19738E+01  3248   0.884E+01-0.502E+00
CGA:   5    -0.568994224279E+03   -0.11435E+01   -0.11424E+01  3248   0.267E+01-0.987E-01
CGA:   6    -0.569322857886E+03   -0.32863E+00   -0.32898E+00  3248   0.116E+01 0.107E-01
CGA:   7    -0.569447377596E+03   -0.12452E+00   -0.12384E+00  3248   0.508E+00-0.491E-02
CGA:   8    -0.569495061669E+03   -0.47684E-01   -0.47175E-01  3248   0.212E+00-0.625E-03
CGA:   9    -0.569518278208E+03   -0.23217E-01   -0.23295E-01  3248   0.998E-01 0.107E-02
CGA:  10    -0.569533657883E+03   -0.15380E-01   -0.15376E-01  3248   0.483E-01 0.149E-03
CGA:  11    -0.569538688610E+03   -0.50307E-02   -0.50596E-02  3248   0.323E-01 0.244E-03
CGA:  12    -0.569542771615E+03   -0.40830E-02   -0.40838E-02  3248   0.168E-01 0.422E-04
CGA:  13    -0.569545183567E+03   -0.24120E-02   -0.24119E-02  3248   0.964E-02-0.157E-04
CGA:  14    -0.569546511185E+03   -0.13276E-02   -0.13275E-02  3248   0.702E-02-0.151E-05
CGA:  15    -0.569547316142E+03   -0.80496E-03   -0.80590E-03  3248   0.428E-02 0.202E-04
CGA:  16    -0.569547937370E+03   -0.62123E-03   -0.62091E-03  3248   0.272E-02 0.217E-04
CGA:  17    -0.569548360574E+03   -0.42320E-03   -0.42238E-03  3248   0.170E-02 0.334E-04
CGA:  18    -0.569548587668E+03   -0.22709E-03   -0.22711E-03  3248   0.147E-02 0.127E-04
CGA:  19    -0.569548779260E+03   -0.19159E-03   -0.19163E-03  3248   0.810E-03 0.986E-05
CGA:  20    -0.569548909718E+03   -0.13046E-03   -0.13043E-03  3248   0.556E-03 0.582E-06
CGA:  21    -0.569548995133E+03   -0.85415E-04   -0.85572E-04  3248   0.487E-03-0.805E-05
CGA:  22    -0.569549052527E+03   -0.57394E-04   -0.57230E-04  3248   0.284E-03-0.950E-05
CGA:  23    -0.569549093490E+03   -0.40964E-04   -0.41056E-04  3248   0.186E-03-0.701E-05
CGA:  24    -0.569549121756E+03   -0.28266E-04   -0.28353E-04  3248   0.122E-03-0.420E-05
CGA:  25    -0.569549136361E+03   -0.14605E-04   -0.14607E-04  3248   0.906E-04 0.194E-06
CGA:  26    -0.569549148827E+03   -0.12466E-04   -0.12461E-04  3248   0.549E-04 0.211E-05
CGA:  27    -0.569549157983E+03   -0.91563E-05   -0.90893E-05  3248   0.384E-04 0.256E-05
   9 F= -.56954916E+03 E0= -.56953948E+03  d E =-.163158E-01  mag=    70.0000
       N       E                     dE             d eps       ncg     rms          ort
SDA:   1    -0.566118411850E+03    0.34307E+01    0.00000E+00  3248   0.132E+02 0.000E+00
CGA:   2    -0.567983079941E+03   -0.18647E+01   -0.18646E+01  3248   0.650E+01 0.329E-02
CGA:   3    -0.569067706435E+03   -0.10846E+01   -0.10846E+01  3248   0.228E+01 0.138E-02
CGA:   4    -0.569478446517E+03   -0.41074E+00   -0.41072E+00  3248   0.681E+00 0.410E-03
CGA:   5    -0.569569867760E+03   -0.91421E-01   -0.91390E-01  3248   0.399E+00-0.185E-02
CGA:   6    -0.569603449819E+03   -0.33582E-01   -0.33990E-01  3248   0.149E+00-0.131E-02
CGA:   7    -0.569619728046E+03   -0.16278E-01   -0.16267E-01  3248   0.417E-01-0.135E-03
CGA:   8    -0.569626304321E+03   -0.65763E-02   -0.65840E-02  3248   0.263E-01-0.250E-03
CGA:   9    -0.569629024559E+03   -0.27202E-02   -0.27208E-02  3248   0.112E-01-0.242E-04
CGA:  10    -0.569630538152E+03   -0.15136E-02   -0.15136E-02  3248   0.767E-02 0.177E-04
CGA:  11    -0.569631352911E+03   -0.81476E-03   -0.81505E-03  3248   0.348E-02 0.134E-04
CGA:  12    -0.569631946289E+03   -0.59338E-03   -0.59245E-03  3248   0.209E-02 0.282E-04
CGA:  13    -0.569632224389E+03   -0.27810E-03   -0.27818E-03  3248   0.141E-02 0.178E-04
CGA:  14    -0.569632401808E+03   -0.17742E-03   -0.17749E-03  3248   0.100E-02 0.495E-05
CGA:  15    -0.569632534436E+03   -0.13263E-03   -0.13259E-03  3248   0.486E-03-0.856E-05
CGA:  16    -0.569632622776E+03   -0.88341E-04   -0.88924E-04  3248   0.408E-03-0.120E-04
CGA:  17    -0.569632665730E+03   -0.42954E-04   -0.42734E-04  3248   0.228E-03-0.692E-05
CGA:  18    -0.569632699896E+03   -0.34166E-04   -0.34218E-04  3248   0.170E-03-0.312E-05
CGA:  19    -0.569632721096E+03   -0.21200E-04   -0.21210E-04  3248   0.876E-04 0.106E-05
CGA:  20    -0.569632736208E+03   -0.15112E-04   -0.14988E-04  3248   0.709E-04 0.375E-05
CGA:  21    -0.569632745210E+03   -0.90016E-05   -0.90458E-05  3248   0.458E-04 0.278E-05
  10 F= -.56963275E+03 E0= -.56962302E+03  d E =-.835872E-01  mag=    70.0000
       N       E                     dE             d eps       ncg     rms          ort
SDA:   1    -0.569565623092E+03    0.67113E-01    0.00000E+00  3248   0.267E+00 0.000E+00
CGA:   2    -0.569603347053E+03   -0.37724E-01   -0.37724E-01  3248   0.134E+00-0.518E-05
CGA:   3    -0.569624078806E+03   -0.20732E-01   -0.20732E-01  3248   0.544E-01-0.247E-04
CGA:   4    -0.569630614632E+03   -0.65358E-02   -0.65417E-02  3248   0.400E-01 0.100E-03
CGA:   5    -0.569634021568E+03   -0.34069E-02   -0.33939E-02  3248   0.855E-02 0.160E-04
CGA:   6    -0.569635332577E+03   -0.13110E-02   -0.13107E-02  3248   0.314E-02 0.109E-04
CGA:   7    -0.569635683250E+03   -0.35067E-03   -0.35058E-03  3248   0.133E-02 0.153E-05
CGA:   8    -0.569635821802E+03   -0.13855E-03   -0.13865E-03  3248   0.740E-03 0.224E-05
CGA:   9    -0.569635909856E+03   -0.88054E-04   -0.88056E-04  3248   0.291E-03 0.297E-06
CGA:  10    -0.569635952499E+03   -0.42643E-04   -0.42646E-04  3248   0.151E-03-0.247E-06
CGA:  11    -0.569635972424E+03   -0.19926E-04   -0.19926E-04  3248   0.127E-03-0.109E-05
CGA:  12    -0.569635988148E+03   -0.15723E-04   -0.15716E-04  3248   0.623E-04-0.909E-06
CGA:  13    -0.569635997258E+03   -0.91097E-05   -0.91185E-05  3248   0.517E-04-0.605E-06
  11 F= -.56963600E+03 E0= -.56962629E+03  d E =-.325205E-02  mag=    70.0000
       N       E                     dE             d eps       ncg     rms          ort
SDA:   1    -0.549028502865E+03    0.20607E+02    0.00000E+00  3248   0.722E+02 0.000E+00
CGA:   2    -0.560295523755E+03   -0.11267E+02   -0.11293E+02  3248   0.440E+02-0.694E+00
CGA:   3    -0.565536661004E+03   -0.52411E+01   -0.53338E+01  3248   0.198E+02 0.301E+01
CGA:   4    -0.567863580782E+03   -0.23269E+01   -0.22428E+01  3248   0.108E+02-0.789E+00
CGA:   5    -0.569039442454E+03   -0.11759E+01   -0.11619E+01  3248   0.300E+01-0.217E+00
CGA:   6    -0.569437428320E+03   -0.39799E+00   -0.39787E+00  3248   0.107E+01 0.179E-01
CGA:   7    -0.569571702543E+03   -0.13427E+00   -0.13439E+00  3248   0.338E+00 0.609E-02
CGA:   8    -0.569618050756E+03   -0.46348E-01   -0.46397E-01  3248   0.178E+00-0.556E-02
CGA:   9    -0.569643484110E+03   -0.25433E-01   -0.25397E-01  3248   0.760E-01 0.167E-02
CGA:  10    -0.569653013070E+03   -0.95290E-02   -0.95396E-02  3248   0.543E-01 0.564E-03
CGA:  11    -0.569658847714E+03   -0.58346E-02   -0.58399E-02  3248   0.323E-01 0.615E-04
CGA:  12    -0.569663653080E+03   -0.48054E-02   -0.48009E-02  3248   0.161E-01 0.159E-03
CGA:  13    -0.569666548662E+03   -0.28956E-02   -0.28925E-02  3248   0.113E-01 0.529E-04
CGA:  14    -0.569668475544E+03   -0.19269E-02   -0.19249E-02  3248   0.773E-02 0.420E-04
CGA:  15    -0.569669818239E+03   -0.13427E-02   -0.13421E-02  3248   0.460E-02 0.173E-04
CGA:  16    -0.569670614464E+03   -0.79622E-03   -0.79565E-03  3248   0.349E-02 0.149E-04
CGA:  17    -0.569671076236E+03   -0.46177E-03   -0.46181E-03  3248   0.283E-02 0.460E-05
CGA:  18    -0.569671439256E+03   -0.36302E-03   -0.36319E-03  3248   0.144E-02 0.612E-05
CGA:  19    -0.569671679083E+03   -0.23983E-03   -0.23993E-03  3248   0.101E-02-0.441E-05
CGA:  20    -0.569671841634E+03   -0.16255E-03   -0.16269E-03  3248   0.562E-03-0.538E-05
CGA:  21    -0.569671941957E+03   -0.10032E-03   -0.10040E-03  3248   0.336E-03-0.217E-05
CGA:  22    -0.569671992589E+03   -0.50632E-04   -0.50630E-04  3248   0.218E-03 0.308E-06
CGA:  23    -0.569672017688E+03   -0.25099E-04   -0.25085E-04  3248   0.137E-03-0.709E-07
CGA:  24    -0.569672037923E+03   -0.20236E-04   -0.20237E-04  3248   0.793E-04-0.310E-06
CGA:  25    -0.569672050177E+03   -0.12253E-04   -0.12258E-04  3248   0.498E-04-0.429E-06
CGA:  26    -0.569672059276E+03   -0.90990E-05   -0.91428E-05  3248   0.347E-04-0.107E-05
  12 F= -.56967206E+03 E0= -.56966282E+03  d E =-.360620E-01  mag=    70.0000
       N       E                     dE             d eps       ncg     rms          ort
SDA:   1    -0.550260194631E+03    0.19412E+02    0.00000E+00  3248   0.723E+02 0.000E+00
CGA:   2    -0.560000120264E+03   -0.97399E+01   -0.97313E+01  3248   0.435E+02-0.388E+00
CGA:   3    -0.565097842260E+03   -0.50977E+01   -0.52673E+01  3248   0.238E+02 0.192E+01
CGA:   4    -0.567574070836E+03   -0.24762E+01   -0.23523E+01  3248   0.940E+01-0.233E+00
CGA:   5    -0.568811061963E+03   -0.12370E+01   -0.12268E+01  3248   0.373E+01-0.392E+00
CGA:   6    -0.569183397582E+03   -0.37234E+00   -0.37594E+00  3248   0.137E+01 0.103E-01
CGA:   7    -0.569334205724E+03   -0.15081E+00   -0.15191E+00  3248   0.750E+00 0.785E-02
CGA:   8    -0.569396494247E+03   -0.62289E-01   -0.60818E-01  3248   0.231E+00 0.536E-02
CGA:   9    -0.569430436748E+03   -0.33943E-01   -0.33920E-01  3248   0.120E+00 0.125E-02
CGA:  10    -0.569444613447E+03   -0.14177E-01   -0.14252E-01  3248   0.781E-01 0.145E-02
CGA:  11    -0.569452973597E+03   -0.83601E-02   -0.84345E-02  3248   0.340E-01 0.623E-03
CGA:  12    -0.569458182623E+03   -0.52090E-02   -0.52000E-02  3248   0.212E-01 0.322E-03
CGA:  13    -0.569461370548E+03   -0.31879E-02   -0.31816E-02  3248   0.159E-01 0.285E-03
CGA:  14    -0.569463309063E+03   -0.19385E-02   -0.19424E-02  3248   0.857E-02 0.111E-03
CGA:  15    -0.569464824024E+03   -0.15150E-02   -0.15123E-02  3248   0.625E-02 0.500E-04
CGA:  16    -0.569465690249E+03   -0.86622E-03   -0.86619E-03  3248   0.411E-02 0.182E-04
CGA:  17    -0.569466366828E+03   -0.67658E-03   -0.67550E-03  3248   0.250E-02 0.275E-04
CGA:  18    -0.569466702736E+03   -0.33591E-03   -0.33591E-03  3248   0.179E-02 0.226E-07
CGA:  19    -0.569466982150E+03   -0.27941E-03   -0.27951E-03  3248   0.955E-03-0.446E-05
CGA:  20    -0.569467148467E+03   -0.16632E-03   -0.16627E-03  3248   0.723E-03 0.851E-06
CGA:  21    -0.569467244932E+03   -0.96465E-04   -0.96464E-04  3248   0.477E-03 0.270E-07
CGA:  22    -0.569467316334E+03   -0.71402E-04   -0.71423E-04  3248   0.255E-03-0.134E-05
CGA:  23    -0.569467359478E+03   -0.43144E-04   -0.43146E-04  3248   0.182E-03-0.434E-07
CGA:  24    -0.569467383655E+03   -0.24177E-04   -0.24164E-04  3248   0.111E-03-0.120E-05
CGA:  25    -0.569467401367E+03   -0.17712E-04   -0.17749E-04  3248   0.773E-04-0.185E-05
CGA:  26    -0.569467412702E+03   -0.11335E-04   -0.11343E-04  3248   0.552E-04-0.125E-05
CGA:  27    -0.569467421740E+03   -0.90374E-05   -0.90591E-05  3248   0.396E-04-0.915E-06
  13 F= -.56946742E+03 E0= -.56945857E+03  d E =0.204638E+00  mag=    70.0000
       N       E                     dE             d eps       ncg     rms          ort
SDA:   1    -0.564932977536E+03    0.45344E+01    0.00000E+00  3248   0.197E+02 0.000E+00
CGA:   2    -0.567420368569E+03   -0.24874E+01   -0.24875E+01  3248   0.824E+01 0.191E-02
CGA:   3    -0.568872366673E+03   -0.14520E+01   -0.14519E+01  3248   0.320E+01 0.245E-02
CGA:   4    -0.569461873032E+03   -0.58951E+00   -0.58932E+00  3248   0.963E+00 0.358E-02
CGA:   5    -0.569597265864E+03   -0.13539E+00   -0.13524E+00  3248   0.408E+00-0.920E-02
CGA:   6    -0.569645736937E+03   -0.48471E-01   -0.48683E-01  3248   0.151E+00 0.209E-02
CGA:   7    -0.569661858344E+03   -0.16121E-01   -0.16164E-01  3248   0.650E-01 0.183E-03
CGA:   8    -0.569669760867E+03   -0.79025E-02   -0.78992E-02  3248   0.337E-01-0.103E-06
CGA:   9    -0.569673653681E+03   -0.38928E-02   -0.38871E-02  3248   0.121E-01-0.358E-04
CGA:  10    -0.569675818454E+03   -0.21648E-02   -0.21631E-02  3248   0.574E-02 0.302E-04
CGA:  11    -0.569676719727E+03   -0.90127E-03   -0.90172E-03  3248   0.427E-02-0.206E-04
CGA:  12    -0.569677250966E+03   -0.53124E-03   -0.53132E-03  3248   0.231E-02 0.497E-05
CGA:  13    -0.569677560850E+03   -0.30988E-03   -0.30998E-03  3248   0.157E-02 0.842E-05
CGA:  14    -0.569677797788E+03   -0.23694E-03   -0.23690E-03  3248   0.801E-03 0.466E-05
CGA:  15    -0.569677947477E+03   -0.14969E-03   -0.14977E-03  3248   0.585E-03-0.145E-05
CGA:  16    -0.569678031131E+03   -0.83654E-04   -0.83651E-04  3248   0.362E-03-0.148E-05
CGA:  17    -0.569678079995E+03   -0.48863E-04   -0.48856E-04  3248   0.271E-03-0.984E-06
CGA:  18    -0.569678116823E+03   -0.36828E-04   -0.36820E-04  3248   0.135E-03-0.102E-05
CGA:  19    -0.569678142014E+03   -0.25191E-04   -0.25251E-04  3248   0.105E-03-0.135E-05
CGA:  20    -0.569678157726E+03   -0.15712E-04   -0.15715E-04  3248   0.622E-04-0.347E-06
CGA:  21    -0.569678167869E+03   -0.10142E-04   -0.10146E-04  3248   0.557E-04-0.173E-06
CGA:  22    -0.569678174629E+03   -0.67607E-05   -0.67621E-05  3248   0.284E-04 0.735E-07
  14 F= -.56967817E+03 E0= -.56966936E+03  d E =-.210753E+00  mag=    70.0000
       N       E                     dE             d eps       ncg     rms          ort
SDA:   1    -0.568922141337E+03    0.75603E+00    0.00000E+00  3248   0.321E+01 0.000E+00
CGA:   2    -0.569329839893E+03   -0.40770E+00   -0.40769E+00  3248   0.139E+01-0.195E-03
CGA:   3    -0.569563499101E+03   -0.23366E+00   -0.23371E+00  3248   0.651E+00-0.135E-02
CGA:   4    -0.569638336605E+03   -0.74838E-01   -0.75345E-01  3248   0.419E+00 0.349E-02
CGA:   5    -0.569680104917E+03   -0.41768E-01   -0.41513E-01  3248   0.860E-01-0.121E-03
CGA:   6    -0.569694248296E+03   -0.14143E-01   -0.14143E-01  3248   0.328E-01-0.327E-05
CGA:   7    -0.569697921263E+03   -0.36730E-02   -0.36712E-02  3248   0.160E-01 0.418E-05
CGA:   8    -0.569699582061E+03   -0.16608E-02   -0.16646E-02  3248   0.578E-02 0.337E-04
CGA:   9    -0.569700509543E+03   -0.92748E-03   -0.92723E-03  3248   0.253E-02 0.159E-04
CGA:  10    -0.569700822586E+03   -0.31304E-03   -0.31312E-03  3248   0.157E-02 0.221E-05
CGA:  11    -0.569701026604E+03   -0.20402E-03   -0.20398E-03  3248   0.731E-03-0.300E-05
CGA:  12    -0.569701140139E+03   -0.11354E-03   -0.11358E-03  3248   0.489E-03-0.322E-05
CGA:  13    -0.569701206587E+03   -0.66448E-04   -0.66445E-04  3248   0.293E-03-0.617E-06
CGA:  14    -0.569701248236E+03   -0.41649E-04   -0.41647E-04  3248   0.183E-03 0.137E-05
CGA:  15    -0.569701278439E+03   -0.30203E-04   -0.30173E-04  3248   0.128E-03 0.135E-05
CGA:  16    -0.569701295097E+03   -0.16657E-04   -0.16665E-04  3248   0.830E-04 0.570E-06
CGA:  17    -0.569701309032E+03   -0.13935E-04   -0.13922E-04  3248   0.466E-04 0.511E-06
CGA:  18    -0.569701316220E+03   -0.71879E-05   -0.71898E-05  3248   0.411E-04-0.207E-06
  15 F= -.56970132E+03 E0= -.56969254E+03  d E =-.231416E-01  mag=    70.0000
       N       E                     dE             d eps       ncg     rms          ort
SDA:   1    -0.569638785181E+03    0.62524E-01    0.00000E+00  3248   0.247E+00 0.000E+00
CGA:   2    -0.569671338683E+03   -0.32554E-01   -0.32547E-01  3248   0.145E+00-0.235E-03
CGA:   3    -0.569691479348E+03   -0.20141E-01   -0.20143E-01  3248   0.788E-01 0.375E-03
CGA:   4    -0.569698829025E+03   -0.73497E-02   -0.73235E-02  3248   0.286E-01-0.365E-05
CGA:   5    -0.569702831673E+03   -0.40026E-02   -0.40026E-02  3248   0.956E-02-0.365E-04
CGA:   6    -0.569703880833E+03   -0.10492E-02   -0.10500E-02  3248   0.389E-02 0.472E-05
CGA:   7    -0.569704370549E+03   -0.48972E-03   -0.48976E-03  3248   0.112E-02 0.549E-05
CGA:   8    -0.569704505934E+03   -0.13538E-03   -0.13552E-03  3248   0.656E-03 0.878E-05
CGA:   9    -0.569704578765E+03   -0.72832E-04   -0.73033E-04  3248   0.243E-03 0.719E-05
CGA:  10    -0.569704619407E+03   -0.40641E-04   -0.40581E-04  3248   0.119E-03 0.206E-05
CGA:  11    -0.569704634740E+03   -0.15334E-04   -0.15322E-04  3248   0.736E-04-0.131E-05
CGA:  12    -0.569704645912E+03   -0.11172E-04   -0.11225E-04  3248   0.467E-04-0.301E-05
CGA:  13    -0.569704651558E+03   -0.56450E-05   -0.56252E-05  3248   0.287E-04-0.167E-05
  16 F= -.56970465E+03 E0= -.56969594E+03  d E =-.333534E-02  mag=    70.0000
       N       E                     dE             d eps       ncg     rms          ort
SDA:   1    -0.569300722232E+03    0.40392E+00    0.00000E+00  3248   0.132E+01 0.000E+00
CGA:   2    -0.569514850551E+03   -0.21413E+00   -0.21439E+00  3248   0.877E+00-0.723E-02
CGA:   3    -0.569643819096E+03   -0.12897E+00   -0.12893E+00  3248   0.344E+00 0.224E-02
CGA:   4    -0.569682556614E+03   -0.38738E-01   -0.38687E-01  3248   0.177E+00-0.608E-03
CGA:   5    -0.569700394195E+03   -0.17838E-01   -0.17885E-01  3248   0.452E-01 0.123E-03
CGA:   6    -0.569706329846E+03   -0.59357E-02   -0.59365E-02  3248   0.224E-01 0.761E-04
CGA:   7    -0.569708685155E+03   -0.23553E-02   -0.23531E-02  3248   0.532E-02-0.307E-05
CGA:   8    -0.569709551601E+03   -0.86645E-03   -0.86558E-03  3248   0.258E-02 0.271E-04
CGA:   9    -0.569709878863E+03   -0.32726E-03   -0.32729E-03  3248   0.154E-02 0.509E-05
CGA:  10    -0.569710051436E+03   -0.17257E-03   -0.17256E-03  3248   0.588E-03 0.532E-06
CGA:  11    -0.569710150039E+03   -0.98603E-04   -0.98736E-04  3248   0.405E-03-0.405E-05
CGA:  12    -0.569710202421E+03   -0.52383E-04   -0.52354E-04  3248   0.192E-03-0.514E-05
CGA:  13    -0.569710236975E+03   -0.34553E-04   -0.34700E-04  3248   0.131E-03-0.305E-05
CGA:  14    -0.569710252563E+03   -0.15589E-04   -0.15600E-04  3248   0.798E-04 0.650E-06
CGA:  15    -0.569710264476E+03   -0.11912E-04   -0.11883E-04  3248   0.427E-04 0.267E-05
CGA:  16    -0.569710270978E+03   -0.65026E-05   -0.64827E-05  3248   0.248E-04 0.220E-05
  17 F= -.56971027E+03 E0= -.56970174E+03  d E =-.561942E-02  mag=    70.0000
       N       E                     dE             d eps       ncg     rms          ort
SDA:   1    -0.567641558019E+03    0.20687E+01    0.00000E+00  3248   0.664E+01 0.000E+00
CGA:   2    -0.568743668448E+03   -0.11021E+01   -0.11023E+01  3248   0.441E+01-0.393E-02
CGA:   3    -0.569384323391E+03   -0.64065E+00   -0.64092E+00  3248   0.173E+01-0.331E-01
CGA:   4    -0.569596224611E+03   -0.21190E+00   -0.21145E+00  3248   0.686E+00-0.809E-02
CGA:   5    -0.569677787245E+03   -0.81563E-01   -0.81859E-01  3248   0.179E+00 0.481E-02
CGA:   6    -0.569704004569E+03   -0.26217E-01   -0.26232E-01  3248   0.912E-01-0.141E-02
CGA:   7    -0.569711926832E+03   -0.79223E-02   -0.78959E-02  3248   0.264E-01 0.748E-04
CGA:   8    -0.569715948491E+03   -0.40217E-02   -0.40206E-02  3248   0.136E-01 0.464E-04
CGA:   9    -0.569717636730E+03   -0.16882E-02   -0.16889E-02  3248   0.608E-02 0.168E-04
CGA:  10    -0.569718563363E+03   -0.92663E-03   -0.92683E-03  3248   0.280E-02-0.756E-05
CGA:  11    -0.569719091641E+03   -0.52828E-03   -0.52816E-03  3248   0.189E-02 0.108E-05
CGA:  12    -0.569719346040E+03   -0.25440E-03   -0.25437E-03  3248   0.119E-02-0.355E-05
CGA:  13    -0.569719539089E+03   -0.19305E-03   -0.19313E-03  3248   0.823E-03-0.334E-05
CGA:  14    -0.569719646409E+03   -0.10732E-03   -0.10734E-03  3248   0.521E-03 0.194E-05
CGA:  15    -0.569719730248E+03   -0.83839E-04   -0.83708E-04  3248   0.267E-03 0.630E-05
CGA:  16    -0.569719777614E+03   -0.47367E-04   -0.47290E-04  3248   0.193E-03 0.244E-05
CGA:  17    -0.569719809157E+03   -0.31543E-04   -0.31519E-04  3248   0.113E-03 0.110E-05
CGA:  18    -0.569719828893E+03   -0.19735E-04   -0.19778E-04  3248   0.837E-04-0.144E-05
CGA:  19    -0.569719841117E+03   -0.12224E-04   -0.12226E-04  3248   0.591E-04-0.118E-05
CGA:  20    -0.569719849316E+03   -0.81998E-05   -0.81969E-05  3248   0.344E-04-0.578E-06
  18 F= -.56971985E+03 E0= -.56971160E+03  d E =-.957834E-02  mag=    70.0000
       N       E                     dE             d eps       ncg     rms          ort
SDA:   1    -0.552141857729E+03    0.17578E+02    0.00000E+00  3248   0.698E+02 0.000E+00
CGA:   2    -0.561137073104E+03   -0.89952E+01   -0.89921E+01  3248   0.357E+02-0.410E-01
CGA:   3    -0.566209375572E+03   -0.50723E+01   -0.50753E+01  3248   0.187E+02 0.522E+00
CGA:   4    -0.568003799262E+03   -0.17944E+01   -0.17050E+01  3248   0.745E+01-0.898E-01
CGA:   5    -0.569113791208E+03   -0.11100E+01   -0.11106E+01  3248   0.210E+01-0.421E-01
CGA:   6    -0.569397146424E+03   -0.28336E+00   -0.28321E+00  3248   0.105E+01-0.844E-02
CGA:   7    -0.569484604264E+03   -0.87458E-01   -0.89853E-01  3248   0.390E+00-0.746E-02
CGA:   8    -0.569536130354E+03   -0.51526E-01   -0.51495E-01  3248   0.140E+00-0.219E-02
CGA:   9    -0.569555992843E+03   -0.19862E-01   -0.19848E-01  3248   0.942E-01 0.214E-02
CGA:  10    -0.569565987399E+03   -0.99946E-02   -0.10000E-01  3248   0.384E-01 0.454E-05
CGA:  11    -0.569572306738E+03   -0.63193E-02   -0.62999E-02  3248   0.232E-01 0.498E-03
CGA:  12    -0.569575539841E+03   -0.32331E-02   -0.32332E-02  3248   0.169E-01 0.503E-04
CGA:  13    -0.569577997656E+03   -0.24578E-02   -0.24561E-02  3248   0.944E-02 0.169E-03
CGA:  14    -0.569579469699E+03   -0.14720E-02   -0.14710E-02  3248   0.659E-02 0.458E-04
CGA:  15    -0.569580513900E+03   -0.10442E-02   -0.10436E-02  3248   0.438E-02 0.193E-04
CGA:  16    -0.569581123514E+03   -0.60961E-03   -0.60958E-03  3248   0.285E-02-0.143E-04
CGA:  17    -0.569581589427E+03   -0.46591E-03   -0.46593E-03  3248   0.161E-02-0.391E-05
CGA:  18    -0.569581839091E+03   -0.24966E-03   -0.24976E-03  3248   0.130E-02-0.612E-05
CGA:  19    -0.569582020537E+03   -0.18145E-03   -0.18145E-03  3248   0.674E-03-0.121E-06
CGA:  20    -0.569582139188E+03   -0.11865E-03   -0.11852E-03  3248   0.481E-03 0.396E-05
CGA:  21    -0.569582206628E+03   -0.67440E-04   -0.67462E-04  3248   0.325E-03 0.438E-05
CGA:  22    -0.569582256631E+03   -0.50003E-04   -0.49982E-04  3248   0.165E-03 0.254E-05
CGA:  23    -0.569582284757E+03   -0.28126E-04   -0.28135E-04  3248   0.137E-03-0.404E-06
CGA:  24    -0.569582303346E+03   -0.18589E-04   -0.18566E-04  3248   0.758E-04-0.226E-05
CGA:  25    -0.569582317170E+03   -0.13825E-04   -0.13966E-04  3248   0.651E-04-0.332E-05
CGA:  26    -0.569582326216E+03   -0.90453E-05   -0.90418E-05  3248   0.418E-04-0.209E-05
  19 F= -.56958233E+03 E0= -.56957340E+03  d E =0.137523E+00  mag=    70.0000
       N       E                     dE             d eps       ncg     rms          ort
SDA:   1    -0.565599920078E+03    0.39824E+01    0.00000E+00  3248   0.190E+02 0.000E+00
CGA:   2    -0.567789248872E+03   -0.21893E+01   -0.21895E+01  3248   0.721E+01 0.210E-02
CGA:   3    -0.569084941532E+03   -0.12957E+01   -0.12952E+01  3248   0.265E+01 0.115E-01
CGA:   4    -0.569453608098E+03   -0.36867E+00   -0.36880E+00  3248   0.180E+01 0.670E-02
CGA:   5    -0.569624062874E+03   -0.17045E+00   -0.16794E+00  3248   0.460E+00 0.148E-02
CGA:   6    -0.569692686216E+03   -0.68623E-01   -0.68617E-01  3248   0.134E+00 0.954E-03
CGA:   7    -0.569711528873E+03   -0.18843E-01   -0.18840E-01  3248   0.694E-01-0.208E-03
CGA:   8    -0.569718556582E+03   -0.70277E-02   -0.70548E-02  3248   0.282E-01 0.121E-03
CGA:   9    -0.569722676599E+03   -0.41200E-02   -0.41197E-02  3248   0.122E-01 0.889E-04
CGA:  10    -0.569724350790E+03   -0.16742E-02   -0.16740E-02  3248   0.647E-02-0.799E-05
CGA:  11    -0.569725243072E+03   -0.89228E-03   -0.89216E-03  3248   0.385E-02-0.197E-04
CGA:  12    -0.569725779573E+03   -0.53650E-03   -0.53650E-03  3248   0.224E-02-0.595E-05
CGA:  13    -0.569726147514E+03   -0.36794E-03   -0.36813E-03  3248   0.130E-02-0.766E-05
CGA:  14    -0.569726324458E+03   -0.17694E-03   -0.17695E-03  3248   0.100E-02 0.183E-05
CGA:  15    -0.569726480788E+03   -0.15633E-03   -0.15620E-03  3248   0.454E-03 0.928E-05
CGA:  16    -0.569726566226E+03   -0.85438E-04   -0.85216E-04  3248   0.403E-03 0.534E-05
CGA:  17    -0.569726617109E+03   -0.50882E-04   -0.50944E-04  3248   0.214E-03 0.310E-05
CGA:  18    -0.569726652609E+03   -0.35500E-04   -0.35491E-04  3248   0.146E-03 0.395E-06
CGA:  19    -0.569726677454E+03   -0.24845E-04   -0.24902E-04  3248   0.989E-04-0.237E-05
CGA:  20    -0.569726692324E+03   -0.14870E-04   -0.14887E-04  3248   0.801E-04-0.269E-05
CGA:  21    -0.569726704013E+03   -0.11688E-04   -0.11695E-04  3248   0.401E-04-0.237E-05
CGA:  22    -0.569726710917E+03   -0.69046E-05   -0.69281E-05  3248   0.342E-04-0.773E-06
  20 F= -.56972671E+03 E0= -.56971813E+03  d E =-.144385E+00  mag=    70.0000
       N       E                     dE             d eps       ncg     rms          ort
SDA:   1    -0.569070642374E+03    0.65606E+00    0.00000E+00  3248   0.283E+01 0.000E+00
CGA:   2    -0.569425943158E+03   -0.35530E+00   -0.35531E+00  3248   0.123E+01 0.958E-04
CGA:   3    -0.569642378631E+03   -0.21644E+00   -0.21643E+00  3248   0.369E+00 0.964E-04
CGA:   4    -0.569710007185E+03   -0.67629E-01   -0.67622E-01  3248   0.162E+00 0.113E-03
CGA:   5    -0.569727832320E+03   -0.17825E-01   -0.17756E-01  3248   0.798E-01-0.246E-03
CGA:   6    -0.569735514010E+03   -0.76817E-02   -0.77092E-02  3248   0.204E-01-0.309E-05
CGA:   7    -0.569738591262E+03   -0.30773E-02   -0.30771E-02  3248   0.756E-02 0.387E-04
CGA:   8    -0.569739559653E+03   -0.96839E-03   -0.96888E-03  3248   0.444E-02 0.301E-04
CGA:   9    -0.569740085375E+03   -0.52572E-03   -0.52648E-03  3248   0.170E-02 0.211E-04
CGA:  10    -0.569740348947E+03   -0.26357E-03   -0.26361E-03  3248   0.923E-03-0.204E-05
CGA:  11    -0.569740472236E+03   -0.12329E-03   -0.12323E-03  3248   0.594E-03-0.651E-05
CGA:  12    -0.569740555229E+03   -0.82993E-04   -0.82977E-04  3248   0.355E-03-0.582E-05
CGA:  13    -0.569740606729E+03   -0.51500E-04   -0.51513E-04  3248   0.178E-03-0.370E-05
CGA:  14    -0.569740639980E+03   -0.33251E-04   -0.33142E-04  3248   0.137E-03 0.240E-05
CGA:  15    -0.569740656061E+03   -0.16081E-04   -0.16145E-04  3248   0.798E-04 0.220E-05
CGA:  16    -0.569740670831E+03   -0.14770E-04   -0.14657E-04  3248   0.451E-04 0.309E-05
CGA:  17    -0.569740678090E+03   -0.72585E-05   -0.72485E-05  3248   0.395E-04 0.119E-05
  21 F= -.56974068E+03 E0= -.56973212E+03  d E =-.139672E-01  mag=    70.0000
       N       E                     dE             d eps       ncg     rms          ort
SDA:   1    -0.569678100122E+03    0.62571E-01    0.00000E+00  3248   0.256E+00 0.000E+00
CGA:   2    -0.569711286620E+03   -0.33186E-01   -0.33194E-01  3248   0.141E+00 0.162E-03
CGA:   3    -0.569730091877E+03   -0.18805E-01   -0.18808E-01  3248   0.764E-01 0.747E-04
CGA:   4    -0.569737342650E+03   -0.72508E-02   -0.72226E-02  3248   0.269E-01 0.559E-05
CGA:   5    -0.569741575134E+03   -0.42325E-02   -0.42328E-02  3248   0.757E-02-0.200E-04
CGA:   6    -0.569742558370E+03   -0.98324E-03   -0.98331E-03  3248   0.385E-02 0.808E-06
CGA:   7    -0.569742923991E+03   -0.36562E-03   -0.36507E-03  3248   0.111E-02 0.383E-05
CGA:   8    -0.569743081578E+03   -0.15759E-03   -0.15758E-03  3248   0.485E-03 0.108E-04
CGA:   9    -0.569743147884E+03   -0.66306E-04   -0.66333E-04  3248   0.272E-03 0.570E-05
CGA:  10    -0.569743180975E+03   -0.33091E-04   -0.33124E-04  3248   0.129E-03 0.180E-05
CGA:  11    -0.569743200016E+03   -0.19041E-04   -0.19050E-04  3248   0.756E-04-0.114E-05
CGA:  12    -0.569743212993E+03   -0.12977E-04   -0.13075E-04  3248   0.528E-04-0.282E-05
CGA:  13    -0.569743219390E+03   -0.63973E-05   -0.63759E-05  3248   0.356E-04-0.139E-05
  22 F= -.56974322E+03 E0= -.56973465E+03  d E =-.254130E-02  mag=    70.0000
       N       E                     dE             d eps       ncg     rms          ort
SDA:   1    -0.569621963919E+03    0.12125E+00    0.00000E+00  3248   0.425E+00 0.000E+00
CGA:   2    -0.569684237823E+03   -0.62274E-01   -0.62258E-01  3248   0.282E+00 0.166E-02
CGA:   3    -0.569720728508E+03   -0.36491E-01   -0.36452E-01  3248   0.151E+00-0.119E-02
CGA:   4    -0.569735265732E+03   -0.14537E-01   -0.14497E-01  3248   0.519E-01-0.655E-04
CGA:   5    -0.569742601996E+03   -0.73363E-02   -0.73362E-02  3248   0.133E-01-0.277E-05
CGA:   6    -0.569744452651E+03   -0.18507E-02   -0.18506E-02  3248   0.686E-02-0.105E-04
CGA:   7    -0.569745101868E+03   -0.64922E-03   -0.64876E-03  3248   0.220E-02 0.230E-05
CGA:   8    -0.569745379272E+03   -0.27740E-03   -0.27754E-03  3248   0.912E-03 0.883E-05
CGA:   9    -0.569745519397E+03   -0.14013E-03   -0.14009E-03  3248   0.437E-03 0.298E-05
CGA:  10    -0.569745572285E+03   -0.52888E-04   -0.52902E-04  3248   0.258E-03 0.815E-06
CGA:  11    -0.569745606118E+03   -0.33833E-04   -0.33829E-04  3248   0.134E-03-0.948E-06
CGA:  12    -0.569745630648E+03   -0.24531E-04   -0.24656E-04  3248   0.807E-04-0.256E-05
CGA:  13    -0.569745641398E+03   -0.10749E-04   -0.10746E-04  3248   0.647E-04-0.111E-05
CGA:  14    -0.569745650565E+03   -0.91670E-05   -0.91673E-05  3248   0.332E-04-0.316E-07
  23 F= -.56974565E+03 E0= -.56973701E+03  d E =-.243117E-02  mag=    70.0000
       N       E                     dE             d eps       ncg     rms          ort
SDA:   1    -0.569363746559E+03    0.38189E+00    0.00000E+00  3248   0.120E+01 0.000E+00
CGA:   2    -0.569564746953E+03   -0.20100E+00   -0.20099E+00  3248   0.846E+00 0.306E-03
CGA:   3    -0.569687397543E+03   -0.12265E+00   -0.12265E+00  3248   0.348E+00-0.183E-03
CGA:   4    -0.569723630028E+03   -0.36232E-01   -0.36014E-01  3248   0.148E+00-0.111E-02
CGA:   5    -0.569740814229E+03   -0.17184E-01   -0.17213E-01  3248   0.370E-01 0.354E-03
CGA:   6    -0.569745761398E+03   -0.49472E-02   -0.49465E-02  3248   0.212E-01-0.522E-04
CGA:   7    -0.569747649227E+03   -0.18878E-02   -0.18732E-02  3248   0.580E-02 0.194E-04
CGA:   8    -0.569748477279E+03   -0.82805E-03   -0.82782E-03  3248   0.257E-02 0.199E-04
CGA:   9    -0.569748831550E+03   -0.35427E-03   -0.35429E-03  3248   0.137E-02-0.135E-04
CGA:  10    -0.569748995106E+03   -0.16356E-03   -0.16366E-03  3248   0.631E-03 0.246E-05
CGA:  11    -0.569749088253E+03   -0.93147E-04   -0.93164E-04  3248   0.408E-03-0.111E-05
CGA:  12    -0.569749147859E+03   -0.59606E-04   -0.59611E-04  3248   0.250E-03-0.520E-06
CGA:  13    -0.569749177272E+03   -0.29413E-04   -0.29397E-04  3248   0.160E-03-0.785E-06
CGA:  14    -0.569749205370E+03   -0.28098E-04   -0.28103E-04  3248   0.820E-04-0.126E-06
CGA:  15    -0.569749218508E+03   -0.13138E-04   -0.13116E-04  3248   0.685E-04 0.954E-06
CGA:  16    -0.569749227475E+03   -0.89671E-05   -0.89749E-05  3248   0.328E-04 0.856E-06
  24 F= -.56974923E+03 E0= -.56974045E+03  d E =-.357691E-02  mag=    70.0000
       N       E                     dE             d eps       ncg     rms          ort
SDA:   1    -0.547787619381E+03    0.21962E+02    0.00000E+00  3248   0.818E+02 0.000E+00
CGA:   2    -0.558845975266E+03   -0.11058E+02   -0.11091E+02  3248   0.459E+02 0.353E+01
CGA:   3    -0.564699894514E+03   -0.58539E+01   -0.57968E+01  3248   0.278E+02-0.278E+01
CGA:   4    -0.567670870730E+03   -0.29710E+01   -0.26818E+01  3248   0.944E+01-0.775E+00
CGA:   5    -0.569013003516E+03   -0.13421E+01   -0.13421E+01  3248   0.314E+01-0.662E-03
CGA:   6    -0.569341032810E+03   -0.32803E+00   -0.33695E+00  3248   0.150E+01 0.568E-01
CGA:   7    -0.569513084071E+03   -0.17205E+00   -0.16791E+00  3248   0.531E+00-0.584E-01
CGA:   8    -0.569564951537E+03   -0.51867E-01   -0.52622E-01  3248   0.324E+00 0.504E-02
CGA:   9    -0.569594432486E+03   -0.29481E-01   -0.29972E-01  3248   0.157E+00 0.117E-02
CGA:  10    -0.569615279836E+03   -0.20847E-01   -0.20839E-01  3248   0.556E-01 0.279E-02
CGA:  11    -0.569625111213E+03   -0.98314E-02   -0.98308E-02  3248   0.439E-01 0.577E-07
CGA:  12    -0.569630750513E+03   -0.56393E-02   -0.56460E-02  3248   0.226E-01 0.720E-03
CGA:  13    -0.569634725490E+03   -0.39750E-02   -0.39724E-02  3248   0.151E-01 0.525E-04
CGA:  14    -0.569636833999E+03   -0.21085E-02   -0.21072E-02  3248   0.125E-01 0.169E-03
CGA:  15    -0.569638192662E+03   -0.13587E-02   -0.13670E-02  3248   0.751E-02 0.818E-04
CGA:  16    -0.569639335654E+03   -0.11430E-02   -0.11439E-02  3248   0.443E-02-0.322E-04
CGA:  17    -0.569639994555E+03   -0.65890E-03   -0.65827E-03  3248   0.315E-02 0.254E-04
CGA:  18    -0.569640515100E+03   -0.52055E-03   -0.52114E-03  3248   0.171E-02-0.160E-04
CGA:  19    -0.569640834100E+03   -0.31900E-03   -0.31864E-03  3248   0.127E-02 0.525E-05
CGA:  20    -0.569640998738E+03   -0.16464E-03   -0.16454E-03  3248   0.102E-02-0.386E-05
CGA:  21    -0.569641127826E+03   -0.12909E-03   -0.12914E-03  3248   0.580E-03 0.354E-05
CGA:  22    -0.569641200805E+03   -0.72979E-04   -0.73014E-04  3248   0.350E-03 0.246E-05
CGA:  23    -0.569641256034E+03   -0.55230E-04   -0.55237E-04  3248   0.175E-03-0.272E-07
CGA:  24    -0.569641286274E+03   -0.30239E-04   -0.30288E-04  3248   0.113E-03-0.147E-05
CGA:  25    -0.569641304284E+03   -0.18010E-04   -0.18073E-04  3248   0.934E-04-0.292E-05
CGA:  26    -0.569641315381E+03   -0.11097E-04   -0.11049E-04  3248   0.597E-04-0.233E-05
CGA:  27    -0.569641323368E+03   -0.79870E-05   -0.79830E-05  3248   0.516E-04-0.131E-05
  25 F= -.56964132E+03 E0= -.56963202E+03  d E =0.107904E+00  mag=    70.0000
       N       E                     dE             d eps       ncg     rms          ort
SDA:   1    -0.561378537181E+03    0.82628E+01    0.00000E+00  3248   0.364E+02 0.000E+00
CGA:   2    -0.565823222534E+03   -0.44447E+01   -0.44490E+01  3248   0.150E+02 0.842E-01
CGA:   3    -0.568262555207E+03   -0.24393E+01   -0.24456E+01  3248   0.747E+01-0.142E+00
CGA:   4    -0.569024419735E+03   -0.76186E+00   -0.81561E+00  3248   0.399E+01 0.359E+00
CGA:   5    -0.569508898241E+03   -0.48448E+00   -0.46005E+00  3248   0.128E+01-0.239E+00
CGA:   6    -0.569646805967E+03   -0.13791E+00   -0.13613E+00  3248   0.586E+00-0.222E-01
CGA:   7    -0.569710010091E+03   -0.63204E-01   -0.63737E-01  3248   0.166E+00 0.551E-02
CGA:   8    -0.569729981710E+03   -0.19972E-01   -0.19972E-01  3248   0.105E+00 0.481E-04
CGA:   9    -0.569740617986E+03   -0.10636E-01   -0.10572E-01  3248   0.441E-01-0.310E-03
CGA:  10    -0.569746460037E+03   -0.58421E-02   -0.58419E-02  3248   0.212E-01 0.422E-03
CGA:  11    -0.569749127761E+03   -0.26677E-02   -0.26653E-02  3248   0.137E-01-0.132E-03
CGA:  12    -0.569750962972E+03   -0.18352E-02   -0.18348E-02  3248   0.894E-02 0.660E-04
CGA:  13    -0.569751948897E+03   -0.98592E-03   -0.98647E-03  3248   0.508E-02 0.272E-05
CGA:  14    -0.569752818760E+03   -0.86986E-03   -0.87061E-03  3248   0.336E-02-0.136E-04
CGA:  15    -0.569753261599E+03   -0.44284E-03   -0.44285E-03  3248   0.266E-02 0.838E-05
CGA:  16    -0.569753608314E+03   -0.34671E-03   -0.34677E-03  3248   0.160E-02 0.109E-04
CGA:  17    -0.569753815741E+03   -0.20743E-03   -0.20742E-03  3248   0.106E-02 0.194E-05
CGA:  18    -0.569753985698E+03   -0.16996E-03   -0.16970E-03  3248   0.645E-03 0.827E-05
CGA:  19    -0.569754065713E+03   -0.80016E-04   -0.80004E-04  3248   0.496E-03-0.297E-06
CGA:  20    -0.569754134515E+03   -0.68802E-04   -0.68814E-04  3248   0.299E-03-0.217E-05
CGA:  21    -0.569754176458E+03   -0.41943E-04   -0.41968E-04  3248   0.210E-03-0.359E-05
CGA:  22    -0.569754208828E+03   -0.32370E-04   -0.32468E-04  3248   0.149E-03-0.432E-05
CGA:  23    -0.569754225588E+03   -0.16761E-04   -0.16719E-04  3248   0.943E-04-0.190E-05
CGA:  24    -0.569754239633E+03   -0.14045E-04   -0.14043E-04  3248   0.608E-04 0.730E-07
CGA:  25    -0.569754248101E+03   -0.84680E-05   -0.84653E-05  3248   0.403E-04 0.605E-06
  26 F= -.56975425E+03 E0= -.56974571E+03  d E =-.112925E+00  mag=    70.0000
       N       E                     dE             d eps       ncg     rms          ort
SDA:   1    -0.569554869056E+03    0.19937E+00    0.00000E+00  3248   0.893E+00 0.000E+00
CGA:   2    -0.569666440827E+03   -0.11157E+00   -0.11160E+00  3248   0.405E+00 0.930E-03
CGA:   3    -0.569719921134E+03   -0.53480E-01   -0.53457E-01  3248   0.278E+00-0.310E-02
CGA:   4    -0.569742942460E+03   -0.23021E-01   -0.23246E-01  3248   0.108E+00-0.998E-03
CGA:   5    -0.569758884133E+03   -0.15942E-01   -0.15941E-01  3248   0.309E-01 0.373E-04
CGA:   6    -0.569762481170E+03   -0.35970E-02   -0.35899E-02  3248   0.181E-01-0.151E-03
CGA:   7    -0.569764282367E+03   -0.18012E-02   -0.18037E-02  3248   0.520E-02 0.134E-04
CGA:   8    -0.569764825596E+03   -0.54323E-03   -0.54411E-03  3248   0.292E-02 0.150E-04
CGA:   9    -0.569765161119E+03   -0.33552E-03   -0.33550E-03  3248   0.103E-02 0.457E-05
CGA:  10    -0.569765328213E+03   -0.16709E-03   -0.16685E-03  3248   0.608E-03 0.710E-05
CGA:  11    -0.569765384275E+03   -0.56062E-04   -0.56038E-04  3248   0.336E-03 0.101E-06
CGA:  12    -0.569765440993E+03   -0.56718E-04   -0.56801E-04  3248   0.182E-03-0.199E-05
CGA:  13    -0.569765463276E+03   -0.22283E-04   -0.22275E-04  3248   0.134E-03-0.123E-05
CGA:  14    -0.569765483707E+03   -0.20431E-04   -0.20460E-04  3248   0.855E-04-0.117E-05
CGA:  15    -0.569765493369E+03   -0.96617E-05   -0.96559E-05  3248   0.641E-04-0.275E-06
CGA:  16    -0.569765503994E+03   -0.10625E-04   -0.10592E-04  3248   0.322E-04 0.914E-06
CGA:  17    -0.569765508960E+03   -0.49657E-05   -0.49538E-05  3248   0.330E-04 0.618E-06
  27 F= -.56976551E+03 E0= -.56975692E+03  d E =-.112609E-01  mag=    70.0000
       N       E                     dE             d eps       ncg     rms          ort
SDA:   1    -0.569379095873E+03    0.38641E+00    0.00000E+00  3248   0.153E+01 0.000E+00
CGA:   2    -0.569593963882E+03   -0.21487E+00   -0.21481E+00  3248   0.760E+00 0.366E-02
CGA:   3    -0.569688772411E+03   -0.94809E-01   -0.94632E-01  3248   0.485E+00-0.892E-02
CGA:   4    -0.569730066227E+03   -0.41294E-01   -0.41640E-01  3248   0.197E+00-0.152E-02
CGA:   5    -0.569756559778E+03   -0.26494E-01   -0.26488E-01  3248   0.685E-01 0.709E-03
CGA:   6    -0.569763785378E+03   -0.72256E-02   -0.71746E-02  3248   0.294E-01-0.497E-03
CGA:   7    -0.569767296405E+03   -0.35110E-02   -0.35127E-02  3248   0.927E-02 0.824E-04
CGA:   8    -0.569768159364E+03   -0.86296E-03   -0.86483E-03  3248   0.543E-02 0.159E-04
CGA:   9    -0.569768837224E+03   -0.67786E-03   -0.67785E-03  3248   0.183E-02 0.671E-05
CGA:  10    -0.569769133207E+03   -0.29598E-03   -0.29551E-03  3248   0.121E-02 0.123E-04
CGA:  11    -0.569769254681E+03   -0.12147E-03   -0.12139E-03  3248   0.669E-03-0.566E-06
CGA:  12    -0.569769356814E+03   -0.10213E-03   -0.10222E-03  3248   0.522E-03-0.327E-05
CGA:  13    -0.569769415880E+03   -0.59066E-04   -0.59042E-04  3248   0.248E-03-0.232E-05
CGA:  14    -0.569769465302E+03   -0.49422E-04   -0.49584E-04  3248   0.227E-03-0.220E-05
CGA:  15    -0.569769488137E+03   -0.22835E-04   -0.22830E-04  3248   0.142E-03-0.184E-06
CGA:  16    -0.569769511458E+03   -0.23321E-04   -0.23263E-04  3248   0.964E-04 0.169E-05
CGA:  17    -0.569769524591E+03   -0.13133E-04   -0.13130E-04  3248   0.617E-04 0.103E-05
CGA:  18    -0.569769533891E+03   -0.92997E-05   -0.92777E-05  3248   0.487E-04 0.125E-05
  28 F= -.56976953E+03 E0= -.56976092E+03  d E =-.402493E-02  mag=    70.0000
       N       E                     dE             d eps       ncg     rms          ort
SDA:   1    -0.569721404332E+03    0.48120E-01    0.00000E+00  3248   0.174E+00 0.000E+00
CGA:   2    -0.569747524954E+03   -0.26121E-01   -0.26100E-01  3248   0.105E+00 0.690E-03
CGA:   3    -0.569760767285E+03   -0.13242E-01   -0.13225E-01  3248   0.498E-01-0.112E-02
CGA:   4    -0.569766738919E+03   -0.59716E-02   -0.59776E-02  3248   0.220E-01 0.232E-03
CGA:   5    -0.569768909034E+03   -0.21701E-02   -0.21710E-02  3248   0.110E-01 0.280E-05
CGA:   6    -0.569769879266E+03   -0.97023E-03   -0.96725E-03  3248   0.295E-02-0.791E-05
CGA:   7    -0.569770307846E+03   -0.42858E-03   -0.42847E-03  3248   0.905E-03 0.325E-05
CGA:   8    -0.569770416721E+03   -0.10887E-03   -0.10885E-03  3248   0.546E-03-0.191E-05
CGA:   9    -0.569770478512E+03   -0.61791E-04   -0.61815E-04  3248   0.283E-03 0.124E-05
CGA:  10    -0.569770506792E+03   -0.28280E-04   -0.28296E-04  3248   0.137E-03 0.443E-06
CGA:  11    -0.569770526572E+03   -0.19780E-04   -0.19783E-04  3248   0.714E-04-0.127E-06
CGA:  12    -0.569770538724E+03   -0.12152E-04   -0.12150E-04  3248   0.532E-04 0.394E-07
CGA:  13    -0.569770545107E+03   -0.63828E-05   -0.63824E-05  3248   0.405E-04-0.424E-08
  29 F= -.56977055E+03 E0= -.56976192E+03  d E =-.101122E-02  mag=    70.0000
       N       E                     dE             d eps       ncg     rms          ort
SDA:   1    -0.569429261992E+03    0.34128E+00    0.00000E+00  3248   0.111E+01 0.000E+00
CGA:   2    -0.569592757887E+03   -0.16350E+00   -0.16297E+00  3248   0.102E+01 0.189E-01
CGA:   3    -0.569687118854E+03   -0.94361E-01   -0.93380E-01  3248   0.458E+00-0.867E-02
CGA:   4    -0.569745586319E+03   -0.58467E-01   -0.58476E-01  3248   0.142E+00-0.313E-02
CGA:   5    -0.569763167052E+03   -0.17581E-01   -0.17588E-01  3248   0.568E-01 0.118E-02
CGA:   6    -0.569768488835E+03   -0.53218E-02   -0.52878E-02  3248   0.253E-01-0.123E-03
CGA:   7    -0.569771280081E+03   -0.27912E-02   -0.27904E-02  3248   0.997E-02-0.287E-04
CGA:   8    -0.569772205591E+03   -0.92551E-03   -0.92722E-03  3248   0.338E-02 0.669E-05
CGA:   9    -0.569772730975E+03   -0.52538E-03   -0.52578E-03  3248   0.180E-02-0.990E-05
CGA:  10    -0.569772907860E+03   -0.17688E-03   -0.17689E-03  3248   0.106E-02 0.551E-06
CGA:  11    -0.569773031876E+03   -0.12402E-03   -0.12403E-03  3248   0.458E-03 0.112E-05
CGA:  12    -0.569773106545E+03   -0.74668E-04   -0.74678E-04  3248   0.333E-03-0.957E-07
CGA:  13    -0.569773145091E+03   -0.38546E-04   -0.38552E-04  3248   0.205E-03 0.291E-06
CGA:  14    -0.569773170481E+03   -0.25390E-04   -0.25391E-04  3248   0.134E-03 0.217E-06
CGA:  15    -0.569773188969E+03   -0.18488E-04   -0.18494E-04  3248   0.882E-04-0.411E-06
CGA:  16    -0.569773201981E+03   -0.13012E-04   -0.13005E-04  3248   0.523E-04 0.332E-06
CGA:  17    -0.569773208478E+03   -0.64968E-05   -0.64970E-05  3248   0.448E-04-0.420E-07
  30 F= -.56977321E+03 E0= -.56976456E+03  d E =-.266337E-02  mag=    70.0000
       N       E                     dE             d eps       ncg     rms          ort
SDA:   1    -0.568527876217E+03    0.12453E+01    0.00000E+00  3248   0.477E+01 0.000E+00
CGA:   2    -0.568990361617E+03   -0.46249E+00   -0.47132E+00  3248   0.392E+01-0.850E-01
CGA:   3    -0.569473969331E+03   -0.48361E+00   -0.48365E+00  3248   0.168E+01-0.324E-01
CGA:   4    -0.569677732297E+03   -0.20376E+00   -0.20363E+00  3248   0.504E+00-0.264E-01
CGA:   5    -0.569743593321E+03   -0.65861E-01   -0.65730E-01  3248   0.178E+00 0.942E-02
CGA:   6    -0.569764967114E+03   -0.21374E-01   -0.21324E-01  3248   0.591E-01-0.286E-02
CGA:   7    -0.569773388053E+03   -0.84209E-02   -0.84067E-02  3248   0.262E-01 0.461E-03
CGA:   8    -0.569775401952E+03   -0.20139E-02   -0.20275E-02  3248   0.113E-01-0.549E-04
CGA:   9    -0.569776939545E+03   -0.15376E-02   -0.15384E-02  3248   0.484E-02-0.434E-04
CGA:  10    -0.569777608159E+03   -0.66861E-03   -0.66802E-03  3248   0.228E-02 0.246E-04
CGA:  11    -0.569777942079E+03   -0.33392E-03   -0.33411E-03  3248   0.128E-02-0.560E-05
CGA:  12    -0.569778112893E+03   -0.17081E-03   -0.17076E-03  3248   0.116E-02 0.400E-05
CGA:  13    -0.569778231959E+03   -0.11907E-03   -0.11913E-03  3248   0.445E-03 0.206E-05
CGA:  14    -0.569778311399E+03   -0.79440E-04   -0.79462E-04  3248   0.308E-03-0.450E-06
CGA:  15    -0.569778359346E+03   -0.47947E-04   -0.47918E-04  3248   0.199E-03 0.862E-06
CGA:  16    -0.569778385051E+03   -0.25705E-04   -0.25705E-04  3248   0.157E-03-0.100E-06
CGA:  17    -0.569778402297E+03   -0.17246E-04   -0.17240E-04  3248   0.801E-04-0.223E-06
CGA:  18    -0.569778415840E+03   -0.13542E-04   -0.13546E-04  3248   0.501E-04-0.129E-06
CGA:  19    -0.569778424946E+03   -0.91061E-05   -0.91321E-05  3248   0.406E-04-0.486E-06
  31 F= -.56977842E+03 E0= -.56977004E+03  d E =-.521647E-02  mag=    70.0000
       N       E                     dE             d eps       ncg     rms          ort
SDA:   1    -0.537282114527E+03    0.32496E+02    0.00000E+00  3248   0.115E+03 0.000E+00
CGA:   2    -0.555054551750E+03   -0.17772E+02   -0.17851E+02  3248   0.660E+02-0.201E+01
CGA:   3    -0.563281896867E+03   -0.82273E+01   -0.82524E+01  3248   0.298E+02 0.179E+01
CGA:   4    -0.566957206970E+03   -0.36753E+01   -0.34923E+01  3248   0.169E+02-0.322E+01
CGA:   5    -0.568679679863E+03   -0.17225E+01   -0.17334E+01  3248   0.379E+01 0.246E+00
CGA:   6    -0.569274104773E+03   -0.59442E+00   -0.59778E+00  3248   0.147E+01-0.923E-01
CGA:   7    -0.569426818559E+03   -0.15271E+00   -0.15696E+00  3248   0.642E+00 0.582E-01
CGA:   8    -0.569499251577E+03   -0.72433E-01   -0.72349E-01  3248   0.308E+00-0.127E-03
CGA:   9    -0.569543267582E+03   -0.44016E-01   -0.43814E-01  3248   0.114E+00 0.966E-02
CGA:  10    -0.569563871994E+03   -0.20604E-01   -0.20668E-01  3248   0.548E-01-0.108E-02
CGA:  11    -0.569573863298E+03   -0.99913E-02   -0.98986E-02  3248   0.411E-01 0.143E-02
CGA:  12    -0.569579390019E+03   -0.55267E-02   -0.55243E-02  3248   0.212E-01-0.256E-03
CGA:  13    -0.569583223523E+03   -0.38335E-02   -0.38163E-02  3248   0.119E-01 0.282E-03
CGA:  14    -0.569585757319E+03   -0.25338E-02   -0.25386E-02  3248   0.795E-02-0.553E-04
CGA:  15    -0.569587146495E+03   -0.13892E-02   -0.13841E-02  3248   0.558E-02 0.109E-03
CGA:  16    -0.569588121795E+03   -0.97530E-03   -0.97637E-03  3248   0.424E-02-0.195E-04
CGA:  17    -0.569588846254E+03   -0.72446E-03   -0.72300E-03  3248   0.231E-02 0.392E-04
CGA:  18    -0.569589374116E+03   -0.52786E-03   -0.52925E-03  3248   0.165E-02-0.150E-04
CGA:  19    -0.569589678358E+03   -0.30424E-03   -0.30410E-03  3248   0.112E-02 0.112E-05
CGA:  20    -0.569589858486E+03   -0.18013E-03   -0.18024E-03  3248   0.683E-03-0.886E-05
CGA:  21    -0.569589961777E+03   -0.10329E-03   -0.10329E-03  3248   0.294E-03-0.652E-06
CGA:  22    -0.569590024578E+03   -0.62801E-04   -0.62899E-04  3248   0.166E-03-0.144E-05
CGA:  23    -0.569590052386E+03   -0.27809E-04   -0.27806E-04  3248   0.107E-03 0.113E-06
CGA:  24    -0.569590069208E+03   -0.16821E-04   -0.16823E-04  3248   0.599E-04-0.784E-06
CGA:  25    -0.569590080114E+03   -0.10906E-04   -0.10926E-04  3248   0.413E-04-0.768E-06
CGA:  26    -0.569590088528E+03   -0.84142E-05   -0.84721E-05  3248   0.264E-04-0.113E-05
  32 F= -.56959009E+03 E0= -.56958321E+03  d E =0.188336E+00  mag=    70.0000
       N       E                     dE             d eps       ncg     rms          ort
SDA:   1    -0.554771876356E+03    0.14818E+02    0.00000E+00  3248   0.650E+02 0.000E+00
CGA:   2    -0.562905381404E+03   -0.81335E+01   -0.81698E+01  3248   0.250E+02 0.248E+00
CGA:   3    -0.567155764010E+03   -0.42504E+01   -0.42550E+01  3248   0.114E+02-0.282E+00
CGA:   4    -0.568876497656E+03   -0.17207E+01   -0.17292E+01  3248   0.439E+01 0.518E+00
CGA:   5    -0.569405560505E+03   -0.52906E+00   -0.45876E+00  3248   0.148E+01 0.191E+00
CGA:   6    -0.569647240245E+03   -0.24168E+00   -0.24172E+00  3248   0.408E+00 0.202E-01
CGA:   7    -0.569710902634E+03   -0.63662E-01   -0.63621E-01  3248   0.182E+00-0.458E-02
CGA:   8    -0.569736400237E+03   -0.25498E-01   -0.25626E-01  3248   0.924E-01 0.327E-02
CGA:   9    -0.569747999533E+03   -0.11599E-01   -0.11513E-01  3248   0.399E-01-0.533E-03
CGA:  10    -0.569753694977E+03   -0.56954E-02   -0.57075E-02  3248   0.219E-01 0.458E-03
CGA:  11    -0.569757167182E+03   -0.34722E-02   -0.34731E-02  3248   0.100E-01-0.207E-03
CGA:  12    -0.569759025448E+03   -0.18583E-02   -0.18540E-02  3248   0.654E-02 0.100E-03
CGA:  13    -0.569759957920E+03   -0.93247E-03   -0.93141E-03  3248   0.461E-02-0.203E-04
CGA:  14    -0.569760648830E+03   -0.69091E-03   -0.69110E-03  3248   0.215E-02 0.172E-04
CGA:  15    -0.569761082959E+03   -0.43413E-03   -0.43529E-03  3248   0.170E-02-0.213E-04
CGA:  16    -0.569761347036E+03   -0.26408E-03   -0.26408E-03  3248   0.967E-03-0.269E-05
CGA:  17    -0.569761509371E+03   -0.16233E-03   -0.16241E-03  3248   0.798E-03-0.521E-05
CGA:  18    -0.569761626540E+03   -0.11717E-03   -0.11722E-03  3248   0.433E-03 0.224E-05
CGA:  19    -0.569761717996E+03   -0.91456E-04   -0.91442E-04  3248   0.269E-03 0.507E-06
CGA:  20    -0.569761762565E+03   -0.44569E-04   -0.44559E-04  3248   0.203E-03 0.165E-05
CGA:  21    -0.569761793034E+03   -0.30468E-04   -0.30466E-04  3248   0.110E-03 0.126E-08
CGA:  22    -0.569761810824E+03   -0.17790E-04   -0.17790E-04  3248   0.714E-04-0.416E-06
CGA:  23    -0.569761823660E+03   -0.12836E-04   -0.12867E-04  3248   0.365E-04-0.145E-05
CGA:  24    -0.569761829858E+03   -0.61984E-05   -0.62104E-05  3248   0.332E-04-0.931E-06
  33 F= -.56976183E+03 E0= -.56975416E+03  d E =-.171741E+00  mag=    70.0000
       N       E                     dE             d eps       ncg     rms          ort
SDA:   1    -0.569371954246E+03    0.38987E+00    0.00000E+00  3248   0.154E+01 0.000E+00
CGA:   2    -0.569599214101E+03   -0.22726E+00   -0.22733E+00  3248   0.724E+00 0.213E-02
CGA:   3    -0.569706148311E+03   -0.10693E+00   -0.10673E+00  3248   0.364E+00-0.610E-02
CGA:   4    -0.569750415359E+03   -0.44267E-01   -0.44888E-01  3248   0.175E+00 0.396E-02
CGA:   5    -0.569770310656E+03   -0.19895E-01   -0.19619E-01  3248   0.442E-01-0.387E-03
CGA:   6    -0.569777563001E+03   -0.72523E-02   -0.72498E-02  3248   0.145E-01 0.164E-03
CGA:   7    -0.569779209166E+03   -0.16462E-02   -0.16364E-02  3248   0.653E-02-0.286E-04
CGA:   8    -0.569780074916E+03   -0.86575E-03   -0.86667E-03  3248   0.258E-02 0.126E-04
CGA:   9    -0.569780485573E+03   -0.41066E-03   -0.41071E-03  3248   0.112E-02-0.480E-05
CGA:  10    -0.569780640006E+03   -0.15443E-03   -0.15454E-03  3248   0.749E-03 0.357E-05
CGA:  11    -0.569780757958E+03   -0.11795E-03   -0.11796E-03  3248   0.331E-03 0.741E-07
CGA:  12    -0.569780813855E+03   -0.55897E-04   -0.55874E-04  3248   0.260E-03 0.101E-05
CGA:  13    -0.569780854439E+03   -0.40584E-04   -0.40586E-04  3248   0.144E-03-0.561E-06
CGA:  14    -0.569780880580E+03   -0.26140E-04   -0.26139E-04  3248   0.112E-03-0.149E-07
CGA:  15    -0.569780897098E+03   -0.16519E-04   -0.16516E-04  3248   0.649E-04-0.270E-06
CGA:  16    -0.569780909626E+03   -0.12528E-04   -0.12514E-04  3248   0.448E-04 0.342E-06
CGA:  17    -0.569780916232E+03   -0.66054E-05   -0.66089E-05  3248   0.292E-04 0.384E-06
  34 F= -.56978092E+03 E0= -.56977333E+03  d E =-.190864E-01  mag=    70.0000
       N       E                     dE             d eps       ncg     rms          ort
SDA:   1    -0.567394774447E+03    0.23861E+01    0.00000E+00  3248   0.885E+01 0.000E+00
CGA:   2    -0.568736324552E+03   -0.13416E+01   -0.13432E+01  3248   0.426E+01 0.151E+00
CGA:   3    -0.569333178433E+03   -0.59685E+00   -0.58065E+00  3248   0.253E+01-0.231E+00
CGA:   4    -0.569612212928E+03   -0.27903E+00   -0.28706E+00  3248   0.877E+00 0.528E-01
CGA:   5    -0.569734930187E+03   -0.12272E+00   -0.12231E+00  3248   0.248E+00-0.890E-02
CGA:   6    -0.569773637926E+03   -0.38708E-01   -0.38690E-01  3248   0.874E-01 0.199E-02
CGA:   7    -0.569782417700E+03   -0.87798E-02   -0.85836E-02  3248   0.357E-01 0.255E-03
CGA:   8    -0.569788047674E+03   -0.56300E-02   -0.56274E-02  3248   0.129E-01 0.199E-03
CGA:   9    -0.569790225206E+03   -0.21775E-02   -0.21789E-02  3248   0.680E-02-0.453E-04
CGA:  10    -0.569791082302E+03   -0.85710E-03   -0.85927E-03  3248   0.446E-02 0.301E-04
CGA:  11    -0.569791835143E+03   -0.75284E-03   -0.75316E-03  3248   0.189E-02-0.936E-05
CGA:  12    -0.569792199428E+03   -0.36429E-03   -0.36373E-03  3248   0.171E-02 0.101E-04
CGA:  13    -0.569792439591E+03   -0.24016E-03   -0.24004E-03  3248   0.951E-03-0.371E-05
CGA:  14    -0.569792610003E+03   -0.17041E-03   -0.17031E-03  3248   0.653E-03 0.249E-05
CGA:  15    -0.569792717116E+03   -0.10711E-03   -0.10714E-03  3248   0.407E-03-0.193E-05
CGA:  16    -0.569792786405E+03   -0.69289E-04   -0.69256E-04  3248   0.299E-03 0.168E-05
CGA:  17    -0.569792829751E+03   -0.43346E-04   -0.43352E-04  3248   0.157E-03 0.948E-06
CGA:  18    -0.569792860008E+03   -0.30258E-04   -0.30191E-04  3248   0.107E-03 0.171E-05
CGA:  19    -0.569792876703E+03   -0.16695E-04   -0.16695E-04  3248   0.737E-04-0.441E-07
CGA:  20    -0.569792888326E+03   -0.11622E-04   -0.11623E-04  3248   0.377E-04-0.667E-06
CGA:  21    -0.569792894654E+03   -0.63282E-05   -0.63441E-05  3248   0.243E-04-0.118E-05
  35 F= -.56979289E+03 E0= -.56978539E+03  d E =-.119784E-01  mag=    70.0000
       N       E                     dE             d eps       ncg     rms          ort
SDA:   1    -0.569735653155E+03    0.57235E-01    0.00000E+00  3248   0.197E+00 0.000E+00
CGA:   2    -0.569765696983E+03   -0.30044E-01   -0.30056E-01  3248   0.132E+00 0.136E-02
CGA:   3    -0.569781691779E+03   -0.15995E-01   -0.15822E-01  3248   0.675E-01-0.834E-03
CGA:   4    -0.569789954012E+03   -0.82622E-02   -0.82957E-02  3248   0.211E-01 0.271E-03
CGA:   5    -0.569792918787E+03   -0.29648E-02   -0.29636E-02  3248   0.588E-02-0.366E-04
CGA:   6    -0.569793755979E+03   -0.83719E-03   -0.83751E-03  3248   0.280E-02 0.112E-04
CGA:   7    -0.569794027485E+03   -0.27151E-03   -0.27035E-03  3248   0.802E-03-0.120E-05
CGA:   8    -0.569794157244E+03   -0.12976E-03   -0.12975E-03  3248   0.349E-03 0.442E-06
CGA:   9    -0.569794208588E+03   -0.51344E-04   -0.51343E-04  3248   0.174E-03-0.269E-06
CGA:  10    -0.569794230353E+03   -0.21764E-04   -0.21772E-04  3248   0.945E-04 0.139E-06
CGA:  11    -0.569794245690E+03   -0.15337E-04   -0.15346E-04  3248   0.477E-04-0.616E-06
CGA:  12    -0.569794253600E+03   -0.79097E-05   -0.79125E-05  3248   0.298E-04-0.159E-06
  36 F= -.56979425E+03 E0= -.56978670E+03  d E =-.135895E-02  mag=    70.0000
