       N       E                     dE             d eps       ncg     rms          ort
DAV:   1     0.180966702156E+05    0.18097E+05   -0.67476E+05  1536   0.177E+03
DAV:   2     0.160087583737E+04   -0.16496E+05   -0.15857E+05  1536   0.549E+02
DAV:   3    -0.141258921114E+04   -0.30135E+04   -0.29059E+04  1536   0.215E+02
DAV:   4    -0.164405549058E+04   -0.23147E+03   -0.22005E+03  1536   0.632E+01
DAV:   5    -0.165603390869E+04   -0.11978E+02   -0.11163E+02  1536   0.134E+01
SDA:   6    -0.204052839517E+03    0.14520E+04   -0.11163E+02  1536   0.858E+04 0.000E+00
CGA:   7    -0.883019189073E+03   -0.67897E+03   -0.70169E+03  1536   0.938E+04-0.486E+03
CGA:   8    -0.106589776336E+04   -0.18288E+03   -0.35850E+03  1536   0.443E+04-0.376E+04
CGA:   9    -0.114072664023E+04   -0.74829E+02   -0.60613E+02  1536   0.636E+03 0.461E+03
CGA:  10    -0.115137619166E+04   -0.10650E+02   -0.33681E+02  1536   0.210E+04-0.322E+03
CGA:  11    -0.115412299310E+04   -0.27468E+01   -0.57567E+02  1536   0.382E+04-0.264E+04
CGA:  12    -0.113163134844E+04    0.22492E+02   -0.11714E+03  1536   0.430E+04-0.284E+04
CGA:  13    -0.110491572635E+04    0.26716E+02   -0.12111E+03  1536   0.884E+04-0.690E+04
CGA:  14    -0.969653685729E+03    0.13526E+03   -0.31216E+03  1536   0.147E+05-0.930E+04
CGA:  15    -0.558708968268E+03    0.41094E+03   -0.61199E+03  1536   0.357E+05-0.208E+05
CGA:  16     0.339929221841E+03    0.89864E+03   -0.16441E+04  1536   0.647E+05-0.393E+05
CGA:  17    -0.107959604170E+03   -0.44789E+03   -0.23004E+04  1536   0.442E+05-0.474E+05
CGA:  18    -0.306940492691E+03   -0.19898E+03   -0.15848E+04  1536   0.348E+05-0.390E+05
CGA:  19    -0.184726549704E+03    0.12221E+03   -0.12669E+04  1536   0.530E+05-0.508E+05
CGA:  20     0.198900644083E+03    0.38363E+03   -0.20935E+04  1536   0.490E+05-0.394E+05
CGA:  21    -0.684490309797E+03   -0.88339E+03   -0.14571E+04  1536   0.234E+05-0.388E+05
CGA:  22    -0.708280229497E+03   -0.23790E+02   -0.78451E+03  1536   0.281E+05-0.280E+05
CGA:  23    -0.494735096299E+03    0.21355E+03   -0.10190E+04  1536   0.399E+05-0.331E+05
CGA:  24    -0.237515868006E+03    0.25722E+03   -0.14843E+04  1536   0.494E+05-0.414E+05
CGA:  25    -0.195739083885E+03    0.41777E+02   -0.17780E+04  1536   0.476E+05-0.445E+05
CGA:  26    -0.285670343060E+03   -0.89931E+02   -0.16847E+04  1536   0.346E+05-0.359E+05
CGA:  27    -0.639651907448E+03   -0.35398E+03   -0.10838E+04  1536   0.295E+05-0.384E+05
CGA:  28    -0.933307960073E+03   -0.29366E+03   -0.82990E+03  1536   0.202E+05-0.274E+05
CGA:  29    -0.112573950251E+04   -0.19243E+03   -0.52296E+03  1536   0.960E+04-0.142E+05
CGA:  30    -0.125427806420E+04   -0.12854E+03   -0.19377E+03  1536   0.178E+04-0.417E+04
CGA:  31    -0.127417853818E+04   -0.19900E+02   -0.12114E+02  1536   0.535E+03 0.605E+03
CGA:  32    -0.127983492121E+04   -0.56564E+01   -0.10432E+02  1536   0.188E+03-0.334E+03
CGA:  33    -0.128257338999E+04   -0.27385E+01   -0.31456E+01  1536   0.430E+02-0.283E+02
CGA:  34    -0.128748490823E+04   -0.49115E+01   -0.47323E+01  1536   0.118E+03 0.244E+01
CGA:  35    -0.129273708091E+04   -0.52522E+01   -0.43781E+01  1536   0.517E+02 0.217E+02
CGA:  36    -0.129564230101E+04   -0.29052E+01   -0.28468E+01  1536   0.233E+02 0.748E+00
CGA:  37    -0.129711108651E+04   -0.14688E+01   -0.14571E+01  1536   0.312E+02-0.240E+00
CGA:  38    -0.129824903585E+04   -0.11379E+01   -0.11099E+01  1536   0.169E+02 0.129E+01
CGA:  39    -0.129923172528E+04   -0.98269E+00   -0.98559E+00  1536   0.840E+01 0.123E+00
CGA:  40    -0.129968000840E+04   -0.44828E+00   -0.45367E+00  1536   0.794E+01 0.877E-01
CGA:  41    -0.130008094260E+04   -0.40093E+00   -0.40748E+00  1536   0.663E+01 0.735E-01
CGA:  42    -0.130040600067E+04   -0.32506E+00   -0.33801E+00  1536   0.399E+01 0.140E+00
CGA:  43    -0.130063007312E+04   -0.22407E+00   -0.22722E+00  1536   0.260E+01 0.921E-01
CGA:  44    -0.130080199789E+04   -0.17192E+00   -0.17223E+00  1536   0.219E+01 0.965E-01
CGA:  45    -0.130098640188E+04   -0.18440E+00   -0.18376E+00  1536   0.259E+01 0.278E-01
CGA:  46    -0.130113843253E+04   -0.15203E+00   -0.15408E+00  1536   0.159E+01 0.929E-01
CGA:  47    -0.130124620315E+04   -0.10777E+00   -0.10779E+00  1536   0.862E+00 0.550E-02
CGA:  48    -0.130131088769E+04   -0.64685E-01   -0.64354E-01  1536   0.849E+00 0.237E-01
CGA:  49    -0.130137783050E+04   -0.66943E-01   -0.66860E-01  1536   0.659E+00 0.372E-02
CGA:  50    -0.130142497099E+04   -0.47140E-01   -0.47177E-01  1536   0.436E+00-0.666E-02
CGA:  51    -0.130145013562E+04   -0.25165E-01   -0.25155E-01  1536   0.236E+00-0.159E-02
CGA:  52    -0.130147003861E+04   -0.19903E-01   -0.19931E-01  1536   0.247E+00-0.153E-02
CGA:  53    -0.130148820001E+04   -0.18161E-01   -0.18196E-01  1536   0.209E+00-0.369E-02
CGA:  54    -0.130150624085E+04   -0.18041E-01   -0.18008E-01  1536   0.117E+00 0.985E-03
CGA:  55    -0.130151559613E+04   -0.93553E-02   -0.93850E-02  1536   0.126E+00-0.181E-02
CGA:  56    -0.130152442569E+04   -0.88296E-02   -0.88318E-02  1536   0.122E+00-0.677E-03
CGA:  57    -0.130153313861E+04   -0.87129E-02   -0.87181E-02  1536   0.877E-01-0.130E-02
CGA:  58    -0.130153851947E+04   -0.53809E-02   -0.53744E-02  1536   0.444E-01-0.989E-04
CGA:  59    -0.130154280789E+04   -0.42884E-02   -0.42998E-02  1536   0.451E-01-0.246E-03
CGA:  60    -0.130154666115E+04   -0.38533E-02   -0.38557E-02  1536   0.394E-01 0.305E-04
CGA:  61    -0.130154914127E+04   -0.24801E-02   -0.24759E-02  1536   0.233E-01 0.220E-04
CGA:  62    -0.130155063419E+04   -0.14929E-02   -0.14953E-02  1536   0.250E-01 0.247E-03
SDA:  63    -0.130155254273E+04   -0.19085E-02   -0.19104E-02  1536   0.198E-01-0.105E-03
CGA:  64    -0.130155323804E+04   -0.69531E-03   -0.69391E-03  1536   0.791E-02 0.718E-05
CGA:  65    -0.130155404430E+04   -0.80627E-03   -0.80908E-03  1536   0.175E-01-0.776E-04
CGA:  66    -0.130155615499E+04   -0.21107E-02   -0.21169E-02  1536   0.323E-01-0.126E-03
CGA:  67    -0.130155777838E+04   -0.16234E-02   -0.16177E-02  1536   0.670E-02-0.789E-04
CGA:  68    -0.130155829986E+04   -0.52148E-03   -0.52165E-03  1536   0.512E-02-0.276E-04
CGA:  69    -0.130155905576E+04   -0.75591E-03   -0.75535E-03  1536   0.849E-02-0.839E-06
CGA:  70    -0.130155940685E+04   -0.35109E-03   -0.34541E-03  1536   0.318E-02 0.712E-04
CGA:  71    -0.130155960806E+04   -0.20120E-03   -0.20106E-03  1536   0.265E-02-0.225E-05
CGA:  72    -0.130155983301E+04   -0.22496E-03   -0.22457E-03  1536   0.274E-02 0.271E-04
CGA:  73    -0.130156002275E+04   -0.18973E-03   -0.18943E-03  1536   0.107E-02-0.135E-04
CGA:  74    -0.130156012492E+04   -0.10217E-03   -0.10181E-03  1536   0.175E-02 0.164E-04
CGA:  75    -0.130156023837E+04   -0.11345E-03   -0.11347E-03  1536   0.154E-02 0.330E-04
CGA:  76    -0.130156031929E+04   -0.80918E-04   -0.79137E-04  1536   0.479E-03 0.349E-04
CGA:  77    -0.130156035501E+04   -0.35719E-04   -0.35715E-04  1536   0.706E-03 0.535E-06
CGA:  78    -0.130156041226E+04   -0.57254E-04   -0.57723E-04  1536   0.666E-03-0.331E-04
CGA:  79    -0.130156043706E+04   -0.24793E-04   -0.23852E-04  1536   0.310E-03 0.123E-04
CGA:  80    -0.130156045160E+04   -0.14541E-04   -0.14289E-04  1536   0.259E-03-0.604E-05
CGA:  81    -0.130156046865E+04   -0.17054E-04   -0.16984E-04  1536   0.423E-03-0.171E-04
CGA:  82    -0.130156048774E+04   -0.19089E-04   -0.18287E-04  1536   0.353E-03-0.168E-04
CGA:  83    -0.130156049943E+04   -0.11691E-04   -0.11125E-04  1536   0.216E-03-0.963E-05
CGA:  84    -0.130156050747E+04   -0.80404E-05   -0.77424E-05  1536   0.194E-03-0.103E-04
   1 F= -.13015605E+04 E0= -.13015187E+04  d E =-.130156E+04  mag=    70.0000
       N       E                     dE             d eps       ncg     rms          ort
SDA:   1    -0.130155346957E+04    0.70299E-02    0.00000E+00  1536   0.196E+00 0.000E+00
CGA:   2    -0.130155838632E+04   -0.49167E-02   -0.49173E-02  1536   0.253E-01-0.165E-04
CGA:   3    -0.130155943517E+04   -0.10489E-02   -0.10487E-02  1536   0.688E-02 0.163E-05
CGA:   4    -0.130155983267E+04   -0.39750E-03   -0.39750E-03  1536   0.576E-02 0.260E-05
CGA:   5    -0.130156025690E+04   -0.42423E-03   -0.42418E-03  1536   0.313E-02 0.374E-05
CGA:   6    -0.130156042007E+04   -0.16318E-03   -0.16319E-03  1536   0.154E-02 0.174E-05
CGA:   7    -0.130156054673E+04   -0.12666E-03   -0.12663E-03  1536   0.161E-02 0.135E-05
CGA:   8    -0.130156062735E+04   -0.80620E-04   -0.80622E-04  1536   0.565E-03 0.393E-07
CGA:   9    -0.130156065288E+04   -0.25532E-04   -0.25516E-04  1536   0.179E-03-0.977E-06
CGA:  10    -0.130156066932E+04   -0.16439E-04   -0.16521E-04  1536   0.180E-03-0.273E-05
CGA:  11    -0.130156068035E+04   -0.11032E-04   -0.11031E-04  1536   0.109E-03-0.207E-05
CGA:  12    -0.130156068410E+04   -0.37462E-05   -0.37284E-05  1536   0.242E-04-0.707E-06
   2 F= -.13015607E+04 E0= -.13015193E+04  d E =-.176629E-03  mag=    70.0000
       N       E                     dE             d eps       ncg     rms          ort
SDA:   1    -0.130155642807E+04    0.42523E-02    0.00000E+00  1536   0.634E-01 0.000E+00
CGA:   2    -0.130155814310E+04   -0.17150E-02   -0.17177E-02  1536   0.122E-01-0.611E-04
CGA:   3    -0.130155910122E+04   -0.95812E-03   -0.95808E-03  1536   0.149E-01 0.317E-05
CGA:   4    -0.130155983133E+04   -0.73011E-03   -0.73011E-03  1536   0.535E-02 0.234E-05
CGA:   5    -0.130156015848E+04   -0.32715E-03   -0.32715E-03  1536   0.324E-02-0.138E-05
CGA:   6    -0.130156043288E+04   -0.27440E-03   -0.27451E-03  1536   0.314E-02-0.433E-05
CGA:   7    -0.130156057266E+04   -0.13977E-03   -0.13970E-03  1536   0.889E-03-0.321E-05
CGA:   8    -0.130156061988E+04   -0.47226E-04   -0.47220E-04  1536   0.414E-03-0.834E-06
CGA:   9    -0.130156064876E+04   -0.28878E-04   -0.28878E-04  1536   0.431E-03-0.761E-07
CGA:  10    -0.130156067424E+04   -0.25480E-04   -0.25480E-04  1536   0.121E-03-0.256E-07
CGA:  11    -0.130156068009E+04   -0.58480E-05   -0.58482E-05  1536   0.513E-04 0.460E-09
   3 F= -.13015607E+04 E0= -.13015193E+04  d E =0.401295E-05  mag=    70.0000
