       N       E                     dE             d eps       ncg     rms          ort
DAV:   1     0.117596497565E+05    0.11760E+05   -0.45958E+05  2208   0.168E+03
DAV:   2     0.850656783740E+03   -0.10909E+05   -0.10484E+05  2208   0.523E+02
DAV:   3    -0.842984023904E+03   -0.16936E+04   -0.16343E+04  2208   0.189E+02
DAV:   4    -0.971612644281E+03   -0.12863E+03   -0.12325E+03  2208   0.542E+01
DAV:   5    -0.980823572518E+03   -0.92109E+01   -0.88652E+01  2208   0.117E+01
SDA:   6     0.299190296560E+02    0.10107E+04   -0.88652E+01  2208   0.872E+04 0.000E+00
CGA:   7    -0.508168021856E+03   -0.53809E+03   -0.83979E+03  2208   0.988E+04-0.193E+04
CGA:   8    -0.469245778518E+03    0.38922E+02   -0.32123E+03  2208   0.133E+05-0.969E+04
CGA:   9    -0.366349010464E+03    0.10290E+03   -0.65376E+03  2208   0.104E+05-0.671E+04
CGA:  10    -0.340473306446E+03    0.25876E+02   -0.47776E+03  2208   0.127E+05-0.117E+05
CGA:  11    -0.384974914448E+03   -0.44502E+02   -0.55932E+03  2208   0.896E+04-0.918E+04
CGA:  12    -0.545852688545E+03   -0.16088E+03   -0.34497E+03  2208   0.112E+05-0.145E+05
CGA:  13    -0.477802443883E+03    0.68050E+02   -0.47325E+03  2208   0.801E+04-0.686E+04
CGA:  14    -0.562454080412E+03   -0.84652E+02   -0.29013E+03  2208   0.994E+04-0.114E+05
CGA:  15    -0.578105650841E+03   -0.15652E+02   -0.35597E+03  2208   0.603E+04-0.619E+04
CGA:  16    -0.710289864688E+03   -0.13218E+03   -0.17331E+03  2208   0.523E+04-0.873E+04
CGA:  17    -0.673634079478E+03    0.36656E+02   -0.18296E+03  2208   0.413E+04-0.329E+04
CGA:  18    -0.756971158707E+03   -0.83337E+02   -0.10032E+03  2208   0.264E+04-0.497E+04
CGA:  19    -0.712140465206E+03    0.44831E+02   -0.98710E+02  2208   0.320E+04-0.200E+04
CGA:  20    -0.772425848463E+03   -0.60285E+02   -0.69297E+02  2208   0.159E+04-0.321E+04
CGA:  21    -0.755257270300E+03    0.17169E+02   -0.49351E+02  2208   0.216E+04-0.151E+04
CGA:  22    -0.755201791065E+03    0.55479E-01   -0.54803E+02  2208   0.308E+04-0.301E+04
CGA:  23    -0.721346209929E+03    0.33856E+02   -0.10048E+03  2208   0.303E+04-0.217E+04
CGA:  24    -0.776825118575E+03   -0.55479E+02   -0.62747E+02  2208   0.155E+04-0.311E+04
CGA:  25    -0.764070247472E+03    0.12755E+02   -0.43690E+02  2208   0.204E+04-0.154E+04
CGA:  26    -0.771980103664E+03   -0.79099E+01   -0.45839E+02  2208   0.209E+04-0.238E+04
CGA:  27    -0.755895162781E+03    0.16085E+02   -0.58330E+02  2208   0.247E+04-0.189E+04
CGA:  28    -0.768958802381E+03   -0.13064E+02   -0.54292E+02  2208   0.244E+04-0.292E+04
CGA:  29    -0.753797752466E+03    0.15161E+02   -0.65655E+02  2208   0.261E+04-0.209E+04
CGA:  30    -0.773444743921E+03   -0.19647E+02   -0.54408E+02  2208   0.217E+04-0.288E+04
CGA:  31    -0.764931543976E+03    0.85132E+01   -0.54167E+02  2208   0.227E+04-0.194E+04
CGA:  32    -0.778136794877E+03   -0.13205E+02   -0.46414E+02  2208   0.187E+04-0.236E+04
CGA:  33    -0.775105473218E+03    0.30313E+01   -0.43280E+02  2208   0.183E+04-0.169E+04
CGA:  34    -0.786822567311E+03   -0.11717E+02   -0.35140E+02  2208   0.120E+04-0.163E+04
CGA:  35    -0.789866900174E+03   -0.30443E+01   -0.24226E+02  2208   0.905E+03-0.101E+04
CGA:  36    -0.798840009077E+03   -0.89731E+01   -0.13433E+02  2208   0.161E+03-0.383E+03
CGA:  37    -0.800789238810E+03   -0.19492E+01   -0.18731E+01  2208   0.817E+01 0.255E+01
CGA:  38    -0.802102326219E+03   -0.13131E+01   -0.14633E+01  2208   0.108E+03-0.141E+01
CGA:  39    -0.804214789565E+03   -0.21125E+01   -0.24681E+01  2208   0.148E+03-0.302E+02
CGA:  40    -0.804011526903E+03    0.20326E+00   -0.12610E+01  2208   0.715E+02-0.972E+02
CGA:  41    -0.804774372283E+03   -0.76285E+00   -0.74736E+00  2208   0.212E+02 0.648E+00
CGA:  42    -0.805198612916E+03   -0.42424E+00   -0.38547E+00  2208   0.622E+01 0.166E+01
CGA:  43    -0.805357419195E+03   -0.15881E+00   -0.16416E+00  2208   0.109E+02-0.145E+00
CGA:  44    -0.805703259751E+03   -0.34584E+00   -0.33318E+00  2208   0.144E+02 0.147E+00
CGA:  45    -0.806176570529E+03   -0.47331E+00   -0.45436E+00  2208   0.280E+02 0.109E+00
CGA:  46    -0.806582871094E+03   -0.40630E+00   -0.50825E+00  2208   0.848E+01-0.392E+01
CGA:  47    -0.806705469577E+03   -0.12260E+00   -0.12582E+00  2208   0.319E+01-0.180E+00
CGA:  48    -0.806768256035E+03   -0.62786E-01   -0.65516E-01  2208   0.399E+01-0.895E-01
CGA:  49    -0.806928693773E+03   -0.16044E+00   -0.16212E+00  2208   0.517E+01 0.723E-01
CGA:  50    -0.807070460728E+03   -0.14177E+00   -0.14511E+00  2208   0.445E+01-0.487E-01
CGA:  51    -0.807145004688E+03   -0.74544E-01   -0.79189E-01  2208   0.174E+01-0.177E+00
CGA:  52    -0.807189382343E+03   -0.44378E-01   -0.44977E-01  2208   0.105E+01-0.798E-02
CGA:  53    -0.807241517450E+03   -0.52135E-01   -0.51992E-01  2208   0.231E+01 0.180E-01
CGA:  54    -0.807299898878E+03   -0.58381E-01   -0.59105E-01  2208   0.169E+01-0.112E-01
CGA:  55    -0.807351288017E+03   -0.51389E-01   -0.51547E-01  2208   0.864E+00 0.219E-03
CGA:  56    -0.807368271521E+03   -0.16984E-01   -0.17123E-01  2208   0.475E+00-0.463E-02
CGA:  57    -0.807380544222E+03   -0.12273E-01   -0.12284E-01  2208   0.387E+00-0.635E-04
CGA:  58    -0.807405596273E+03   -0.25052E-01   -0.24996E-01  2208   0.691E+00 0.214E-02
CGA:  59    -0.807423535600E+03   -0.17939E-01   -0.17980E-01  2208   0.476E+00 0.110E-03
CGA:  60    -0.807432484303E+03   -0.89487E-02   -0.89583E-02  2208   0.159E+00-0.168E-03
CGA:  61    -0.807438713258E+03   -0.62290E-02   -0.62299E-02  2208   0.214E+00 0.148E-03
CGA:  62    -0.807446893788E+03   -0.81805E-02   -0.81780E-02  2208   0.383E+00-0.628E-03
CGA:  63    -0.807460294984E+03   -0.13401E-01   -0.13401E-01  2208   0.208E+00-0.544E-03
CGA:  64    -0.807466740256E+03   -0.64453E-02   -0.64463E-02  2208   0.145E+00-0.351E-03
CGA:  65    -0.807469463904E+03   -0.27236E-02   -0.27240E-02  2208   0.832E-01-0.338E-03
CGA:  66    -0.807473899331E+03   -0.44354E-02   -0.44338E-02  2208   0.146E+00-0.384E-05
CGA:  67    -0.807479821264E+03   -0.59219E-02   -0.59212E-02  2208   0.184E+00 0.199E-03
CGA:  68    -0.807483979320E+03   -0.41581E-02   -0.41184E-02  2208   0.929E-01 0.339E-03
CGA:  69    -0.807486272483E+03   -0.22932E-02   -0.22925E-02  2208   0.362E-01-0.125E-03
CGA:  70    -0.807487796545E+03   -0.15241E-02   -0.15236E-02  2208   0.753E-01 0.536E-04
SDA:  71    -0.807490298792E+03   -0.25022E-02   -0.25001E-02  2208   0.705E-01-0.144E-03
CGA:  72    -0.807491501336E+03   -0.12025E-02   -0.12032E-02  2208   0.275E-01-0.349E-04
CGA:  73    -0.807492018940E+03   -0.51760E-03   -0.51811E-03  2208   0.144E-01-0.273E-04
CGA:  74    -0.807492714434E+03   -0.69549E-03   -0.69544E-03  2208   0.230E-01-0.550E-05
CGA:  75    -0.807493716613E+03   -0.10022E-02   -0.10020E-02  2208   0.398E-01 0.864E-06
CGA:  76    -0.807494900757E+03   -0.11841E-02   -0.11826E-02  2208   0.135E-01-0.989E-04
CGA:  77    -0.807495265543E+03   -0.36479E-03   -0.36486E-03  2208   0.681E-02-0.187E-04
CGA:  78    -0.807495689509E+03   -0.42397E-03   -0.42408E-03  2208   0.124E-01-0.824E-05
CGA:  79    -0.807496126895E+03   -0.43739E-03   -0.43748E-03  2208   0.241E-01 0.115E-04
CGA:  80    -0.807496872959E+03   -0.74606E-03   -0.74569E-03  2208   0.111E-01-0.274E-04
CGA:  81    -0.807497273493E+03   -0.40053E-03   -0.40050E-03  2208   0.603E-02-0.253E-04
CGA:  82    -0.807497478357E+03   -0.20486E-03   -0.20493E-03  2208   0.742E-02 0.698E-05
CGA:  83    -0.807497748043E+03   -0.26969E-03   -0.26965E-03  2208   0.114E-01-0.281E-04
CGA:  84    -0.807498336214E+03   -0.58817E-03   -0.59336E-03  2208   0.133E-01-0.278E-03
CGA:  85    -0.807498539097E+03   -0.20288E-03   -0.20553E-03  2208   0.469E-02-0.991E-04
CGA:  86    -0.807498675484E+03   -0.13639E-03   -0.13632E-03  2208   0.198E-02 0.457E-05
CGA:  87    -0.807498828417E+03   -0.15293E-03   -0.15185E-03  2208   0.451E-02 0.248E-04
CGA:  88    -0.807499040293E+03   -0.21188E-03   -0.21148E-03  2208   0.295E-02 0.439E-04
CGA:  89    -0.807499116427E+03   -0.76134E-04   -0.75934E-04  2208   0.244E-02 0.803E-05
CGA:  90    -0.807499178155E+03   -0.61728E-04   -0.61801E-04  2208   0.119E-02-0.295E-05
CGA:  91    -0.807499232098E+03   -0.53943E-04   -0.54064E-04  2208   0.276E-02-0.173E-04
CGA:  92    -0.807499321120E+03   -0.89022E-04   -0.88569E-04  2208   0.312E-02-0.569E-04
CGA:  93    -0.807499418160E+03   -0.97040E-04   -0.96884E-04  2208   0.141E-02-0.433E-04
CGA:  94    -0.807499462883E+03   -0.44723E-04   -0.44635E-04  2208   0.593E-03-0.212E-04
CGA:  95    -0.807499493707E+03   -0.30824E-04   -0.31047E-04  2208   0.199E-02-0.142E-04
CGA:  96    -0.807499557654E+03   -0.63947E-04   -0.63919E-04  2208   0.157E-02-0.136E-04
CGA:  97    -0.807499604417E+03   -0.46763E-04   -0.46777E-04  2208   0.111E-02-0.760E-05
CGA:  98    -0.807499624368E+03   -0.19951E-04   -0.19827E-04  2208   0.434E-03-0.204E-05
CGA:  99    -0.807499642496E+03   -0.18128E-04   -0.18133E-04  2208   0.388E-03-0.282E-05
CGA: 100    -0.807499658321E+03   -0.15824E-04   -0.15828E-04  2208   0.990E-03-0.237E-05
CGA: 101    -0.807499691556E+03   -0.33236E-04   -0.33235E-04  2208   0.876E-03-0.174E-05
SDA: 102    -0.807499717339E+03   -0.25783E-04   -0.25772E-04  2208   0.339E-03-0.161E-05
CGA: 103    -0.807499724889E+03   -0.75493E-05   -0.75644E-05  2208   0.197E-03-0.765E-06
   1 F= -.80749972E+03 E0= -.80741347E+03  d E =-.807500E+03  mag=    66.0000
       N       E                     dE             d eps       ncg     rms          ort
SDA:   1    -0.807472494517E+03    0.27223E-01    0.00000E+00  2208   0.360E+01 0.000E+00
CGA:   2    -0.807504551249E+03   -0.32057E-01   -0.32372E-01  2208   0.136E+00-0.298E-01
CGA:   3    -0.807506728774E+03   -0.21775E-02   -0.21761E-02  2208   0.295E-01 0.602E-04
CGA:   4    -0.807507298030E+03   -0.56926E-03   -0.56944E-03  2208   0.160E-01 0.470E-05
CGA:   5    -0.807507998036E+03   -0.70001E-03   -0.69987E-03  2208   0.221E-01 0.146E-04
CGA:   6    -0.807509090195E+03   -0.10922E-02   -0.10918E-02  2208   0.147E-01 0.174E-04
CGA:   7    -0.807509477414E+03   -0.38722E-03   -0.38721E-03  2208   0.718E-02-0.651E-06
CGA:   8    -0.807509589828E+03   -0.11241E-03   -0.11229E-03  2208   0.341E-02-0.262E-05
CGA:   9    -0.807509744844E+03   -0.15502E-03   -0.15525E-03  2208   0.357E-02-0.192E-04
CGA:  10    -0.807509927375E+03   -0.18253E-03   -0.18316E-03  2208   0.473E-02-0.347E-04
CGA:  11    -0.807510010893E+03   -0.83518E-04   -0.83191E-04  2208   0.128E-02-0.195E-04
CGA:  12    -0.807510042835E+03   -0.31942E-04   -0.31844E-04  2208   0.512E-03-0.123E-04
CGA:  13    -0.807510055615E+03   -0.12780E-04   -0.12722E-04  2208   0.456E-03-0.783E-05
CGA:  14    -0.807510066752E+03   -0.11137E-04   -0.11072E-04  2208   0.385E-03-0.851E-05
CGA:  15    -0.807510092716E+03   -0.25964E-04   -0.26796E-04  2208   0.283E-03-0.219E-04
CGA:  16    -0.807510100437E+03   -0.77215E-05   -0.77001E-05  2208   0.183E-03-0.436E-05
   2 F= -.80751010E+03 E0= -.80742371E+03  d E =-.103755E-01  mag=    66.0000
       N       E                     dE             d eps       ncg     rms          ort
SDA:   1    -0.780408215740E+03    0.27102E+02    0.00000E+00  2208   0.956E+02 0.000E+00
CGA:   2    -0.789862620396E+03   -0.94544E+01   -0.90960E+01  2208   0.209E+03 0.766E+01
CGA:   3    -0.798688296552E+03   -0.88257E+01   -0.89001E+01  2208   0.146E+03-0.129E+02
CGA:   4    -0.801059360360E+03   -0.23711E+01   -0.23646E+01  2208   0.610E+02 0.379E+00
CGA:   5    -0.802924356245E+03   -0.18650E+01   -0.18411E+01  2208   0.414E+02-0.155E+01
CGA:   6    -0.804704328114E+03   -0.17800E+01   -0.17872E+01  2208   0.755E+02-0.571E+00
CGA:   7    -0.806337232447E+03   -0.16329E+01   -0.16128E+01  2208   0.293E+02 0.261E+00
CGA:   8    -0.807213285328E+03   -0.87605E+00   -0.87463E+00  2208   0.775E+01-0.993E-01
CGA:   9    -0.807430315528E+03   -0.21703E+00   -0.21708E+00  2208   0.814E+01 0.115E-02
CGA:  10    -0.807612171572E+03   -0.18186E+00   -0.18172E+00  2208   0.677E+01 0.418E-03
CGA:  11    -0.807916710547E+03   -0.30454E+00   -0.30407E+00  2208   0.467E+01 0.315E-01
CGA:  12    -0.808008697155E+03   -0.91987E-01   -0.91261E-01  2208   0.270E+01 0.131E-01
CGA:  13    -0.808064214694E+03   -0.55518E-01   -0.55592E-01  2208   0.606E+00-0.114E-03
CGA:  14    -0.808096273483E+03   -0.32059E-01   -0.31927E-01  2208   0.781E+00 0.590E-02
CGA:  15    -0.808129779097E+03   -0.33506E-01   -0.33481E-01  2208   0.133E+01 0.223E-02
CGA:  16    -0.808155171170E+03   -0.25392E-01   -0.25570E-01  2208   0.538E+00-0.277E-02
CGA:  17    -0.808170349378E+03   -0.15178E-01   -0.15178E-01  2208   0.210E+00 0.119E-03
CGA:  18    -0.808174712537E+03   -0.43632E-02   -0.43660E-02  2208   0.173E+00 0.269E-04
CGA:  19    -0.808181269951E+03   -0.65574E-02   -0.65555E-02  2208   0.212E+00 0.211E-03
CGA:  20    -0.808194461768E+03   -0.13192E-01   -0.13135E-01  2208   0.140E+00 0.185E-02
CGA:  21    -0.808199451331E+03   -0.49896E-02   -0.49893E-02  2208   0.815E-01 0.895E-04
CGA:  22    -0.808201104321E+03   -0.16530E-02   -0.16547E-02  2208   0.692E-01-0.432E-04
CGA:  23    -0.808204991648E+03   -0.38873E-02   -0.38826E-02  2208   0.794E-01 0.184E-03
CGA:  24    -0.808208555129E+03   -0.35635E-02   -0.35606E-02  2208   0.121E+00 0.232E-03
CGA:  25    -0.808210602900E+03   -0.20478E-02   -0.20532E-02  2208   0.409E-01-0.642E-04
CGA:  26    -0.808211827350E+03   -0.12245E-02   -0.12251E-02  2208   0.210E-01 0.110E-03
CGA:  27    -0.808213170721E+03   -0.13434E-02   -0.13375E-02  2208   0.407E-01 0.196E-03
CGA:  28    -0.808214458937E+03   -0.12882E-02   -0.12890E-02  2208   0.520E-01 0.179E-03
CGA:  29    -0.808215907431E+03   -0.14485E-02   -0.14500E-02  2208   0.136E-01 0.178E-03
CGA:  30    -0.808216418553E+03   -0.51112E-03   -0.51113E-03  2208   0.983E-02-0.300E-05
CGA:  31    -0.808217100376E+03   -0.68182E-03   -0.68619E-03  2208   0.204E-01-0.127E-03
SDA:  32    -0.808217577644E+03   -0.47727E-03   -0.47608E-03  2208   0.171E-01-0.876E-04
CGA:  33    -0.808217806411E+03   -0.22877E-03   -0.22865E-03  2208   0.526E-02-0.202E-05
CGA:  34    -0.808217950472E+03   -0.14406E-03   -0.14402E-03  2208   0.373E-02-0.104E-04
CGA:  35    -0.808218129892E+03   -0.17942E-03   -0.17975E-03  2208   0.757E-02-0.255E-04
CGA:  36    -0.808218378486E+03   -0.24859E-03   -0.24850E-03  2208   0.113E-01-0.392E-04
CGA:  37    -0.808218831352E+03   -0.45287E-03   -0.45320E-03  2208   0.421E-02-0.683E-04
CGA:  38    -0.808218960321E+03   -0.12897E-03   -0.12893E-03  2208   0.154E-02-0.831E-05
CGA:  39    -0.808219071999E+03   -0.11168E-03   -0.11068E-03  2208   0.320E-02 0.254E-04
CGA:  40    -0.808219312172E+03   -0.24017E-03   -0.23754E-03  2208   0.305E-02 0.721E-04
CGA:  41    -0.808219391744E+03   -0.79572E-04   -0.79807E-04  2208   0.236E-02 0.172E-04
CGA:  42    -0.808219440507E+03   -0.48763E-04   -0.48824E-04  2208   0.900E-03 0.335E-05
CGA:  43    -0.808219497849E+03   -0.57341E-04   -0.57895E-04  2208   0.233E-02-0.218E-04
CGA:  44    -0.808219569176E+03   -0.71327E-04   -0.71080E-04  2208   0.278E-02-0.342E-04
CGA:  45    -0.808219631109E+03   -0.61933E-04   -0.61437E-04  2208   0.974E-03-0.322E-04
CGA:  46    -0.808219667750E+03   -0.36641E-04   -0.36651E-04  2208   0.315E-03-0.194E-04
CGA:  47    -0.808219698278E+03   -0.30528E-04   -0.30706E-04  2208   0.997E-03-0.371E-05
CGA:  48    -0.808219728756E+03   -0.30478E-04   -0.30491E-04  2208   0.127E-02 0.592E-06
CGA:  49    -0.808219755142E+03   -0.26386E-04   -0.26448E-04  2208   0.376E-03 0.253E-05
CGA:  50    -0.808219767878E+03   -0.12736E-04   -0.12757E-04  2208   0.170E-03 0.325E-05
CGA:  51    -0.808219778687E+03   -0.10809E-04   -0.10657E-04  2208   0.486E-03 0.588E-05
CGA:  52    -0.808219792286E+03   -0.13599E-04   -0.13717E-04  2208   0.354E-03 0.860E-05
CGA:  53    -0.808219808556E+03   -0.16271E-04   -0.16200E-04  2208   0.149E-03 0.122E-04
CGA:  54    -0.808219813964E+03   -0.54080E-05   -0.54327E-05  2208   0.117E-03 0.487E-05
   3 F= -.80821981E+03 E0= -.80813278E+03  d E =-.709714E+00  mag=    66.0000
       N       E                     dE             d eps       ncg     rms          ort
SDA:   1    -0.799234002937E+03    0.89858E+01    0.00000E+00  2208   0.321E+02 0.000E+00
CGA:   2    -0.802226213820E+03   -0.29922E+01   -0.29818E+01  2208   0.816E+02 0.331E+00
CGA:   3    -0.804542711499E+03   -0.23165E+01   -0.22889E+01  2208   0.642E+02-0.652E-01
CGA:   4    -0.805940863124E+03   -0.13982E+01   -0.13947E+01  2208   0.205E+02-0.228E+00
CGA:   5    -0.806684257438E+03   -0.74339E+00   -0.74120E+00  2208   0.145E+02-0.214E+00
CGA:   6    -0.807141566598E+03   -0.45731E+00   -0.45582E+00  2208   0.222E+02-0.398E-01
CGA:   7    -0.807828414303E+03   -0.68685E+00   -0.68546E+00  2208   0.108E+02-0.402E-01
CGA:   8    -0.808163653658E+03   -0.33524E+00   -0.33559E+00  2208   0.253E+01 0.822E-02
CGA:   9    -0.808245238139E+03   -0.81584E-01   -0.81517E-01  2208   0.167E+01-0.313E-02
CGA:  10    -0.808298915514E+03   -0.53677E-01   -0.53700E-01  2208   0.251E+01 0.155E-02
CGA:  11    -0.808375693471E+03   -0.76778E-01   -0.76607E-01  2208   0.139E+01-0.531E-02
CGA:  12    -0.808419961812E+03   -0.44268E-01   -0.44258E-01  2208   0.603E+00-0.639E-03
CGA:  13    -0.808430243531E+03   -0.10282E-01   -0.10280E-01  2208   0.260E+00 0.909E-04
CGA:  14    -0.808438620320E+03   -0.83768E-02   -0.83807E-02  2208   0.154E+00 0.375E-03
CGA:  15    -0.808450383690E+03   -0.11763E-01   -0.11739E-01  2208   0.268E+00 0.644E-03
CGA:  16    -0.808457075780E+03   -0.66921E-02   -0.66953E-02  2208   0.231E+00 0.692E-04
CGA:  17    -0.808462042497E+03   -0.49667E-02   -0.49628E-02  2208   0.409E-01 0.122E-03
CGA:  18    -0.808463444941E+03   -0.14024E-02   -0.14026E-02  2208   0.435E-01 0.854E-05
CGA:  19    -0.808465154325E+03   -0.17094E-02   -0.17093E-02  2208   0.775E-01 0.187E-05
CGA:  20    -0.808467963323E+03   -0.28090E-02   -0.28091E-02  2208   0.487E-01 0.367E-04
CGA:  21    -0.808469905012E+03   -0.19417E-02   -0.19418E-02  2208   0.227E-01-0.438E-04
CGA:  22    -0.808470383415E+03   -0.47840E-03   -0.47883E-03  2208   0.188E-01-0.211E-06
CGA:  23    -0.808471057106E+03   -0.67369E-03   -0.67371E-03  2208   0.193E-01 0.553E-04
CGA:  24    -0.808472179299E+03   -0.11222E-02   -0.11188E-02  2208   0.232E-01 0.157E-03
CGA:  25    -0.808472869282E+03   -0.68998E-03   -0.69078E-03  2208   0.186E-01 0.938E-04
CGA:  26    -0.808473235440E+03   -0.36616E-03   -0.36718E-03  2208   0.553E-02 0.428E-04
CGA:  27    -0.808473522288E+03   -0.28685E-03   -0.28636E-03  2208   0.724E-02 0.296E-04
CGA:  28    -0.808473825094E+03   -0.30281E-03   -0.30269E-03  2208   0.147E-01 0.222E-04
CGA:  29    -0.808474241125E+03   -0.41603E-03   -0.41617E-03  2208   0.657E-02 0.847E-05
CGA:  30    -0.808474426863E+03   -0.18574E-03   -0.18566E-03  2208   0.213E-02-0.105E-04
CGA:  31    -0.808474522159E+03   -0.95297E-04   -0.95457E-04  2208   0.428E-02-0.197E-04
SDA:  32    -0.808474653863E+03   -0.13170E-03   -0.13154E-03  2208   0.370E-02-0.324E-04
CGA:  33    -0.808474719761E+03   -0.65898E-04   -0.65850E-04  2208   0.164E-02-0.150E-05
CGA:  34    -0.808474756500E+03   -0.36739E-04   -0.36709E-04  2208   0.103E-02-0.298E-05
CGA:  35    -0.808474817221E+03   -0.60721E-04   -0.60882E-04  2208   0.195E-02-0.712E-05
CGA:  36    -0.808474911467E+03   -0.94246E-04   -0.94369E-04  2208   0.397E-02-0.102E-04
CGA:  37    -0.808475002227E+03   -0.90760E-04   -0.90656E-04  2208   0.112E-02-0.764E-05
CGA:  38    -0.808475040259E+03   -0.38032E-04   -0.38035E-04  2208   0.428E-03 0.147E-05
CGA:  39    -0.808475084088E+03   -0.43829E-04   -0.42688E-04  2208   0.101E-02 0.172E-04
CGA:  40    -0.808475149881E+03   -0.65794E-04   -0.65217E-04  2208   0.684E-03 0.246E-04
CGA:  41    -0.808475172637E+03   -0.22756E-04   -0.22786E-04  2208   0.465E-03 0.353E-05
CGA:  42    -0.808475182795E+03   -0.10157E-04   -0.10122E-04  2208   0.395E-03-0.247E-05
CGA:  43    -0.808475204399E+03   -0.21605E-04   -0.21840E-04  2208   0.608E-03-0.145E-04
CGA:  44    -0.808475229413E+03   -0.25014E-04   -0.25080E-04  2208   0.651E-03-0.213E-04
CGA:  45    -0.808475241174E+03   -0.11760E-04   -0.11550E-04  2208   0.254E-03-0.998E-05
CGA:  46    -0.808475249413E+03   -0.82394E-05   -0.82073E-05  2208   0.131E-03-0.573E-05
CGA:  47    -0.808475261715E+03   -0.12302E-04   -0.12303E-04  2208   0.301E-03-0.329E-06
CGA:  48    -0.808475275822E+03   -0.14107E-04   -0.14089E-04  2208   0.198E-03 0.302E-05
CGA:  49    -0.808475279734E+03   -0.39112E-05   -0.39501E-05  2208   0.124E-03 0.151E-05
   4 F= -.80847528E+03 E0= -.80839180E+03  d E =-.255466E+00  mag=    66.0000
       N       E                     dE             d eps       ncg     rms          ort
SDA:   1    -0.783078659872E+03    0.25397E+02    0.00000E+00  2208   0.106E+03 0.000E+00
CGA:   2    -0.788810580782E+03   -0.57319E+01   -0.56685E+01  2208   0.181E+03 0.429E+01
CGA:   3    -0.795744681995E+03   -0.69341E+01   -0.69456E+01  2208   0.184E+03 0.130E+01
CGA:   4    -0.800970202088E+03   -0.52255E+01   -0.51793E+01  2208   0.643E+02-0.650E+00
CGA:   5    -0.803424398963E+03   -0.24542E+01   -0.24498E+01  2208   0.510E+02-0.133E+01
CGA:   6    -0.804598239092E+03   -0.11738E+01   -0.11179E+01  2208   0.451E+02 0.115E+01
CGA:   7    -0.806472168077E+03   -0.18739E+01   -0.18749E+01  2208   0.379E+02-0.299E+00
CGA:   8    -0.807626057208E+03   -0.11539E+01   -0.11455E+01  2208   0.252E+02-0.146E+00
CGA:   9    -0.807967458179E+03   -0.34140E+00   -0.34295E+00  2208   0.608E+01-0.105E+00
CGA:  10    -0.808155909917E+03   -0.18845E+00   -0.18849E+00  2208   0.405E+01 0.173E-02
CGA:  11    -0.808286206538E+03   -0.13030E+00   -0.13024E+00  2208   0.608E+01-0.352E-02
CGA:  12    -0.808441888422E+03   -0.15568E+00   -0.15745E+00  2208   0.346E+01 0.169E-01
CGA:  13    -0.808570551488E+03   -0.12866E+00   -0.12859E+00  2208   0.174E+01 0.392E-01
CGA:  14    -0.808598307067E+03   -0.27756E-01   -0.28000E-01  2208   0.725E+00-0.898E-02
CGA:  15    -0.808618581664E+03   -0.20275E-01   -0.20291E-01  2208   0.422E+00 0.647E-03
CGA:  16    -0.808646424441E+03   -0.27843E-01   -0.27463E-01  2208   0.768E+00 0.119E-01
CGA:  17    -0.808665919958E+03   -0.19496E-01   -0.19603E-01  2208   0.596E+00 0.771E-03
CGA:  18    -0.808681137601E+03   -0.15218E-01   -0.15251E-01  2208   0.159E+00 0.470E-03
CGA:  19    -0.808686390915E+03   -0.52533E-02   -0.52555E-02  2208   0.101E+00 0.475E-03
CGA:  20    -0.808689739380E+03   -0.33485E-02   -0.33494E-02  2208   0.163E+00 0.184E-03
CGA:  21    -0.808698526188E+03   -0.87868E-02   -0.87178E-02  2208   0.121E+00 0.306E-02
CGA:  22    -0.808702639367E+03   -0.41132E-02   -0.41160E-02  2208   0.109E+00 0.444E-03
CGA:  23    -0.808704826973E+03   -0.21876E-02   -0.21937E-02  2208   0.382E-01-0.103E-03
CGA:  24    -0.808706870717E+03   -0.20437E-02   -0.20403E-02  2208   0.423E-01 0.176E-03
CGA:  25    -0.808709358543E+03   -0.24878E-02   -0.24767E-02  2208   0.633E-01 0.454E-03
CGA:  26    -0.808710924825E+03   -0.15663E-02   -0.15710E-02  2208   0.439E-01 0.136E-03
CGA:  27    -0.808712178001E+03   -0.12532E-02   -0.12552E-02  2208   0.147E-01 0.144E-03
CGA:  28    -0.808712846177E+03   -0.66818E-03   -0.66800E-03  2208   0.140E-01 0.178E-04
CGA:  29    -0.808713816998E+03   -0.97082E-03   -0.97002E-03  2208   0.287E-01 0.212E-04
CGA:  30    -0.808714465994E+03   -0.64900E-03   -0.64897E-03  2208   0.149E-01-0.426E-04
CGA:  31    -0.808715040320E+03   -0.57433E-03   -0.57434E-03  2208   0.626E-02-0.241E-04
SDA:  32    -0.808715242934E+03   -0.20261E-03   -0.20259E-03  2208   0.734E-02-0.985E-05
CGA:  33    -0.808715353425E+03   -0.11049E-03   -0.11055E-03  2208   0.273E-02-0.281E-06
CGA:  34    -0.808715591468E+03   -0.23804E-03   -0.23743E-03  2208   0.507E-02 0.107E-04
CGA:  35    -0.808715897314E+03   -0.30585E-03   -0.30560E-03  2208   0.998E-02 0.112E-04
CGA:  36    -0.808716107815E+03   -0.21050E-03   -0.21048E-03  2208   0.272E-02 0.371E-05
CGA:  37    -0.808716214443E+03   -0.10663E-03   -0.10663E-03  2208   0.195E-02-0.759E-05
CGA:  38    -0.808716365378E+03   -0.15094E-03   -0.15189E-03  2208   0.328E-02-0.253E-04
CGA:  39    -0.808716527216E+03   -0.16184E-03   -0.16206E-03  2208   0.327E-02-0.243E-04
CGA:  40    -0.808716605748E+03   -0.78532E-04   -0.78395E-04  2208   0.177E-02-0.737E-05
CGA:  41    -0.808716665872E+03   -0.60124E-04   -0.60139E-04  2208   0.108E-02 0.152E-05
CGA:  42    -0.808716747036E+03   -0.81163E-04   -0.80654E-04  2208   0.214E-02 0.142E-04
CGA:  43    -0.808716806025E+03   -0.58990E-04   -0.59151E-04  2208   0.192E-02 0.979E-05
CGA:  44    -0.808716881264E+03   -0.75239E-04   -0.75260E-04  2208   0.632E-03 0.941E-05
CGA:  45    -0.808716906759E+03   -0.25494E-04   -0.25491E-04  2208   0.472E-03-0.387E-05
CGA:  46    -0.808716943847E+03   -0.37089E-04   -0.37692E-04  2208   0.105E-02-0.158E-04
CGA:  47    -0.808716974519E+03   -0.30672E-04   -0.30501E-04  2208   0.990E-03-0.143E-04
CGA:  48    -0.808717006800E+03   -0.32281E-04   -0.32160E-04  2208   0.257E-03-0.137E-04
CGA:  49    -0.808717015736E+03   -0.89357E-05   -0.89364E-05  2208   0.273E-03-0.352E-06
CGA:  50    -0.808717026569E+03   -0.10833E-04   -0.10840E-04  2208   0.463E-03 0.458E-05
CGA:  51    -0.808717055849E+03   -0.29280E-04   -0.28881E-04  2208   0.163E-03 0.196E-04
CGA:  52    -0.808717063178E+03   -0.73295E-05   -0.73249E-05  2208   0.949E-04 0.674E-05
   5 F= -.80871706E+03 E0= -.80864512E+03  d E =-.241783E+00  mag=    66.0000
       N       E                     dE             d eps       ncg     rms          ort
SDA:   1    -0.805675961273E+03    0.30411E+01    0.00000E+00  2208   0.140E+02 0.000E+00
CGA:   2    -0.806174059023E+03   -0.49810E+00   -0.49562E+00  2208   0.225E+02-0.999E-01
CGA:   3    -0.807156443885E+03   -0.98238E+00   -0.98239E+00  2208   0.208E+02-0.411E-03
CGA:   4    -0.807839517231E+03   -0.68307E+00   -0.68573E+00  2208   0.661E+01 0.479E-01
CGA:   5    -0.808133869347E+03   -0.29435E+00   -0.29483E+00  2208   0.508E+01-0.104E+00
CGA:   6    -0.808359822797E+03   -0.22595E+00   -0.22598E+00  2208   0.750E+01-0.448E-02
CGA:   7    -0.808575383561E+03   -0.21556E+00   -0.21544E+00  2208   0.309E+01-0.165E-02
CGA:   8    -0.808672284363E+03   -0.96901E-01   -0.96734E-01  2208   0.109E+01-0.237E-02
CGA:   9    -0.808692799124E+03   -0.20515E-01   -0.20553E-01  2208   0.477E+00-0.950E-03
CGA:  10    -0.808718718079E+03   -0.25919E-01   -0.25945E-01  2208   0.444E+00-0.125E-02
CGA:  11    -0.808746857578E+03   -0.28139E-01   -0.28079E-01  2208   0.295E+00 0.234E-02
CGA:  12    -0.808753021428E+03   -0.61638E-02   -0.61717E-02  2208   0.146E+00-0.900E-04
CGA:  13    -0.808757597692E+03   -0.45763E-02   -0.45765E-02  2208   0.551E-01 0.413E-04
CGA:  14    -0.808759547008E+03   -0.19493E-02   -0.19499E-02  2208   0.619E-01 0.682E-04
CGA:  15    -0.808762423294E+03   -0.28763E-02   -0.28757E-02  2208   0.813E-01 0.977E-04
CGA:  16    -0.808765219157E+03   -0.27959E-02   -0.27981E-02  2208   0.257E-01 0.146E-03
CGA:  17    -0.808766218194E+03   -0.99904E-03   -0.99910E-03  2208   0.104E-01 0.356E-04
CGA:  18    -0.808766672999E+03   -0.45480E-03   -0.45468E-03  2208   0.190E-01 0.301E-04
CGA:  19    -0.808767436295E+03   -0.76330E-03   -0.76330E-03  2208   0.175E-01 0.556E-04
CGA:  20    -0.808768284792E+03   -0.84850E-03   -0.84787E-03  2208   0.133E-01 0.649E-04
CGA:  21    -0.808768581397E+03   -0.29661E-03   -0.29729E-03  2208   0.567E-02 0.224E-05
CGA:  22    -0.808768800635E+03   -0.21924E-03   -0.21923E-03  2208   0.451E-02-0.894E-05
CGA:  23    -0.808769281887E+03   -0.48125E-03   -0.48532E-03  2208   0.759E-02-0.595E-04
CGA:  24    -0.808769511524E+03   -0.22964E-03   -0.22938E-03  2208   0.414E-02-0.257E-04
CGA:  25    -0.808769616701E+03   -0.10518E-03   -0.10520E-03  2208   0.222E-02-0.402E-05
CGA:  26    -0.808769709884E+03   -0.93183E-04   -0.93178E-04  2208   0.202E-02 0.131E-04
CGA:  27    -0.808769805183E+03   -0.95299E-04   -0.95169E-04  2208   0.335E-02 0.246E-04
CGA:  28    -0.808769919047E+03   -0.11386E-03   -0.11413E-03  2208   0.152E-02 0.303E-04
CGA:  29    -0.808769982770E+03   -0.63723E-04   -0.63724E-04  2208   0.627E-03 0.666E-05
CGA:  30    -0.808770017369E+03   -0.34599E-04   -0.34746E-04  2208   0.100E-02-0.112E-04
CGA:  31    -0.808770058075E+03   -0.40705E-04   -0.40690E-04  2208   0.110E-02-0.203E-04
SDA:  32    -0.808770101468E+03   -0.43393E-04   -0.43352E-04  2208   0.559E-03-0.211E-04
CGA:  33    -0.808770114432E+03   -0.12964E-04   -0.13039E-04  2208   0.237E-03 0.360E-05
CGA:  34    -0.808770123859E+03   -0.94273E-05   -0.94396E-05  2208   0.340E-03 0.821E-05
CGA:  35    -0.808770141107E+03   -0.17248E-04   -0.17108E-04  2208   0.336E-03 0.178E-04
CGA:  36    -0.808770158646E+03   -0.17539E-04   -0.17435E-04  2208   0.363E-03 0.129E-04
CGA:  37    -0.808770167872E+03   -0.92261E-05   -0.92562E-05  2208   0.179E-03 0.141E-05
   6 F= -.80877017E+03 E0= -.80870374E+03  d E =-.531047E-01  mag=    66.0000
       N       E                     dE             d eps       ncg     rms          ort
SDA:   1    -0.780498068437E+03    0.28272E+02    0.00000E+00  2208   0.138E+03 0.000E+00
CGA:   2    -0.787393646150E+03   -0.68956E+01   -0.69753E+01  2208   0.166E+03-0.421E+01
CGA:   3    -0.796154792550E+03   -0.87611E+01   -0.87555E+01  2208   0.156E+03-0.192E+00
CGA:   4    -0.800428409236E+03   -0.42736E+01   -0.40575E+01  2208   0.513E+02-0.126E+01
CGA:   5    -0.802622841048E+03   -0.21944E+01   -0.22125E+01  2208   0.674E+02-0.455E+01
CGA:   6    -0.805028345334E+03   -0.24055E+01   -0.24096E+01  2208   0.667E+02 0.841E+00
CGA:   7    -0.807234890844E+03   -0.22065E+01   -0.21774E+01  2208   0.215E+02-0.748E+00
CGA:   8    -0.807842902594E+03   -0.60801E+00   -0.59699E+00  2208   0.122E+02-0.336E-01
CGA:   9    -0.808135859589E+03   -0.29296E+00   -0.29079E+00  2208   0.441E+01 0.261E-01
CGA:  10    -0.808344511132E+03   -0.20865E+00   -0.20835E+00  2208   0.404E+01 0.265E-01
CGA:  11    -0.808535821628E+03   -0.19131E+00   -0.19065E+00  2208   0.554E+01 0.616E-01
CGA:  12    -0.808666923432E+03   -0.13110E+00   -0.13393E+00  2208   0.151E+01-0.302E-01
CGA:  13    -0.808712758603E+03   -0.45835E-01   -0.46182E-01  2208   0.679E+00 0.954E-02
CGA:  14    -0.808733190988E+03   -0.20432E-01   -0.20454E-01  2208   0.616E+00 0.778E-03
CGA:  15    -0.808765388568E+03   -0.32198E-01   -0.31953E-01  2208   0.567E+00 0.138E-01
CGA:  16    -0.808793119888E+03   -0.27731E-01   -0.27653E-01  2208   0.378E+00 0.620E-02
CGA:  17    -0.808805881880E+03   -0.12762E-01   -0.12798E-01  2208   0.217E+00 0.205E-02
CGA:  18    -0.808812132264E+03   -0.62504E-02   -0.62536E-02  2208   0.103E+00 0.748E-04
CGA:  19    -0.808818276017E+03   -0.61438E-02   -0.60501E-02  2208   0.131E+00 0.382E-02
CGA:  20    -0.808824841375E+03   -0.65654E-02   -0.65618E-02  2208   0.162E+00 0.301E-03
CGA:  21    -0.808829858624E+03   -0.50172E-02   -0.50403E-02  2208   0.738E-01 0.584E-03
CGA:  22    -0.808832797604E+03   -0.29390E-02   -0.29390E-02  2208   0.319E-01 0.294E-03
CGA:  23    -0.808834749463E+03   -0.19519E-02   -0.19441E-02  2208   0.564E-01 0.320E-03
CGA:  24    -0.808836981206E+03   -0.22317E-02   -0.22321E-02  2208   0.394E-01 0.138E-03
CGA:  25    -0.808839245601E+03   -0.22644E-02   -0.22562E-02  2208   0.216E-01 0.392E-03
CGA:  26    -0.808840012579E+03   -0.76698E-03   -0.76716E-03  2208   0.180E-01 0.823E-05
CGA:  27    -0.808840624051E+03   -0.61147E-03   -0.61170E-03  2208   0.122E-01-0.416E-05
CGA:  28    -0.808841579027E+03   -0.95498E-03   -0.95531E-03  2208   0.139E-01-0.113E-04
CGA:  29    -0.808842189663E+03   -0.61064E-03   -0.61062E-03  2208   0.115E-01-0.455E-05
CGA:  30    -0.808842549604E+03   -0.35994E-03   -0.36002E-03  2208   0.506E-02-0.858E-05
CGA:  31    -0.808842820778E+03   -0.27117E-03   -0.27114E-03  2208   0.530E-02 0.248E-05
SDA:  32    -0.808843127515E+03   -0.30674E-03   -0.30635E-03  2208   0.732E-02 0.236E-04
CGA:  33    -0.808843253522E+03   -0.12601E-03   -0.12612E-03  2208   0.193E-02-0.312E-05
CGA:  34    -0.808843345293E+03   -0.91771E-04   -0.91737E-04  2208   0.184E-02 0.455E-05
CGA:  35    -0.808843485930E+03   -0.14064E-03   -0.14034E-03  2208   0.398E-02 0.820E-05
CGA:  36    -0.808843660829E+03   -0.17490E-03   -0.17490E-03  2208   0.307E-02 0.122E-04
CGA:  37    -0.808843797271E+03   -0.13644E-03   -0.13644E-03  2208   0.888E-03 0.584E-05
CGA:  38    -0.808843859528E+03   -0.62257E-04   -0.62323E-04  2208   0.943E-03-0.326E-05
CGA:  39    -0.808843954646E+03   -0.95117E-04   -0.95800E-04  2208   0.238E-02-0.126E-04
CGA:  40    -0.808844020501E+03   -0.65856E-04   -0.65695E-04  2208   0.120E-02-0.100E-04
CGA:  41    -0.808844067125E+03   -0.46623E-04   -0.46575E-04  2208   0.607E-03-0.638E-05
CGA:  42    -0.808844103507E+03   -0.36383E-04   -0.36443E-04  2208   0.509E-03-0.491E-05
CGA:  43    -0.808844155271E+03   -0.51763E-04   -0.52055E-04  2208   0.687E-03-0.565E-05
CGA:  44    -0.808844184809E+03   -0.29538E-04   -0.29524E-04  2208   0.562E-03-0.269E-05
CGA:  45    -0.808844200189E+03   -0.15380E-04   -0.15345E-04  2208   0.311E-03-0.194E-05
CGA:  46    -0.808844217049E+03   -0.16860E-04   -0.16868E-04  2208   0.302E-03-0.186E-05
CGA:  47    -0.808844247833E+03   -0.30784E-04   -0.30881E-04  2208   0.548E-03-0.212E-05
CGA:  48    -0.808844263271E+03   -0.15438E-04   -0.15440E-04  2208   0.211E-03-0.301E-06
CGA:  49    -0.808844272216E+03   -0.89453E-05   -0.89657E-05  2208   0.120E-03 0.213E-05
   7 F= -.80884427E+03 E0= -.80879190E+03  d E =-.741043E-01  mag=    66.0000
       N       E                     dE             d eps       ncg     rms          ort
SDA:   1    -0.799616474845E+03    0.92278E+01    0.00000E+00  2208   0.439E+02 0.000E+00
CGA:   2    -0.802687083145E+03   -0.30706E+01   -0.30260E+01  2208   0.596E+02 0.205E+01
CGA:   3    -0.805442861888E+03   -0.27558E+01   -0.27719E+01  2208   0.260E+02 0.712E+00
CGA:   4    -0.806179002408E+03   -0.73614E+00   -0.68853E+00  2208   0.134E+02 0.833E+00
CGA:   5    -0.807094930684E+03   -0.91593E+00   -0.93785E+00  2208   0.236E+02-0.952E+00
CGA:   6    -0.808144635455E+03   -0.10497E+01   -0.10525E+01  2208   0.175E+02 0.337E+00
CGA:   7    -0.808467705345E+03   -0.32307E+00   -0.31314E+00  2208   0.200E+01 0.468E+00
CGA:   8    -0.808592957784E+03   -0.12525E+00   -0.12512E+00  2208   0.223E+01 0.821E-02
CGA:   9    -0.808667220508E+03   -0.74263E-01   -0.74992E-01  2208   0.197E+01 0.141E-02
CGA:  10    -0.808747286673E+03   -0.80066E-01   -0.79929E-01  2208   0.871E+00-0.403E-02
CGA:  11    -0.808778729493E+03   -0.31443E-01   -0.31516E-01  2208   0.408E+00 0.990E-03
CGA:  12    -0.808788376766E+03   -0.96473E-02   -0.97118E-02  2208   0.193E+00-0.128E-02
CGA:  13    -0.808798834159E+03   -0.10457E-01   -0.10463E-01  2208   0.195E+00-0.429E-03
CGA:  14    -0.808812588066E+03   -0.13754E-01   -0.13728E-01  2208   0.177E+00 0.961E-03
CGA:  15    -0.808817316790E+03   -0.47287E-02   -0.47501E-02  2208   0.793E-01-0.218E-03
CGA:  16    -0.808820006860E+03   -0.26901E-02   -0.26904E-02  2208   0.360E-01 0.133E-04
CGA:  17    -0.808822229935E+03   -0.22231E-02   -0.22216E-02  2208   0.368E-01 0.684E-04
CGA:  18    -0.808823944643E+03   -0.17147E-02   -0.17148E-02  2208   0.576E-01 0.353E-04
CGA:  19    -0.808826291379E+03   -0.23467E-02   -0.23466E-02  2208   0.266E-01-0.146E-04
CGA:  20    -0.808827280453E+03   -0.98907E-03   -0.99053E-03  2208   0.101E-01 0.346E-04
CGA:  21    -0.808827732633E+03   -0.45218E-03   -0.45225E-03  2208   0.144E-01 0.170E-04
CGA:  22    -0.808828490505E+03   -0.75787E-03   -0.75775E-03  2208   0.143E-01 0.144E-04
CGA:  23    -0.808829417569E+03   -0.92706E-03   -0.92631E-03  2208   0.652E-02 0.337E-04
CGA:  24    -0.808829674852E+03   -0.25728E-03   -0.25746E-03  2208   0.493E-02 0.711E-05
CGA:  25    -0.808829861250E+03   -0.18640E-03   -0.18643E-03  2208   0.499E-02 0.146E-05
CGA:  26    -0.808830171041E+03   -0.30979E-03   -0.30965E-03  2208   0.527E-02 0.703E-05
CGA:  27    -0.808830431676E+03   -0.26064E-03   -0.26062E-03  2208   0.467E-02 0.828E-05
CGA:  28    -0.808830557121E+03   -0.12544E-03   -0.12547E-03  2208   0.193E-02 0.873E-06
CGA:  29    -0.808830655700E+03   -0.98579E-04   -0.98563E-04  2208   0.183E-02 0.220E-05
CGA:  30    -0.808830872846E+03   -0.21715E-03   -0.21675E-03  2208   0.206E-02 0.471E-05
CGA:  31    -0.808830938180E+03   -0.65333E-04   -0.65290E-04  2208   0.139E-02-0.946E-06
SDA:  32    -0.808830990575E+03   -0.52396E-04   -0.52370E-04  2208   0.730E-03-0.251E-05
CGA:  33    -0.808831021304E+03   -0.30728E-04   -0.30710E-04  2208   0.595E-03-0.332E-05
CGA:  34    -0.808831052790E+03   -0.31486E-04   -0.31510E-04  2208   0.101E-02-0.580E-05
CGA:  35    -0.808831107240E+03   -0.54451E-04   -0.54515E-04  2208   0.586E-03-0.121E-04
CGA:  36    -0.808831128784E+03   -0.21543E-04   -0.21513E-04  2208   0.347E-03-0.293E-05
CGA:  37    -0.808831140678E+03   -0.11894E-04   -0.11912E-04  2208   0.336E-03 0.780E-06
CGA:  38    -0.808831161030E+03   -0.20353E-04   -0.20276E-04  2208   0.325E-03 0.586E-05
CGA:  39    -0.808831182762E+03   -0.21731E-04   -0.21614E-04  2208   0.181E-03 0.665E-05
CGA:  40    -0.808831194332E+03   -0.11570E-04   -0.11566E-04  2208   0.142E-03-0.217E-07
CGA:  41    -0.808831207518E+03   -0.13186E-04   -0.13445E-04  2208   0.345E-03-0.607E-05
CGA:  42    -0.808831220259E+03   -0.12742E-04   -0.12656E-04  2208   0.234E-03-0.648E-05
CGA:  43    -0.808831228932E+03   -0.86729E-05   -0.86186E-05  2208   0.743E-04-0.420E-05
   8 F= -.80883123E+03 E0= -.80877859E+03  d E =0.130433E-01  mag=    66.0000
       N       E                     dE             d eps       ncg     rms          ort
SDA:   1    -0.807798588340E+03    0.10326E+01    0.00000E+00  2208   0.629E+01 0.000E+00
CGA:   2    -0.808064599416E+03   -0.26601E+00   -0.26540E+00  2208   0.806E+01-0.204E-01
CGA:   3    -0.808407628651E+03   -0.34303E+00   -0.34346E+00  2208   0.449E+01 0.166E-01
CGA:   4    -0.808549400111E+03   -0.14177E+00   -0.14196E+00  2208   0.155E+01-0.257E-02
CGA:   5    -0.808625444790E+03   -0.76045E-01   -0.76038E-01  2208   0.237E+01-0.824E-02
CGA:   6    -0.808737062723E+03   -0.11162E+00   -0.11168E+00  2208   0.185E+01 0.133E-01
CGA:   7    -0.808817938473E+03   -0.80876E-01   -0.80921E-01  2208   0.396E+00 0.305E-02
CGA:   8    -0.808835582305E+03   -0.17644E-01   -0.17645E-01  2208   0.127E+00 0.694E-04
CGA:   9    -0.808845484234E+03   -0.99019E-02   -0.98991E-02  2208   0.175E+00 0.100E-03
CGA:  10    -0.808851694565E+03   -0.62103E-02   -0.62233E-02  2208   0.104E+00 0.103E-03
CGA:  11    -0.808854926557E+03   -0.32320E-02   -0.32299E-02  2208   0.245E-01 0.277E-04
CGA:  12    -0.808856135217E+03   -0.12087E-02   -0.12086E-02  2208   0.192E-01 0.301E-04
CGA:  13    -0.808856984955E+03   -0.84974E-03   -0.84982E-03  2208   0.264E-01 0.147E-04
CGA:  14    -0.808858080817E+03   -0.10959E-02   -0.10961E-02  2208   0.115E-01 0.209E-04
CGA:  15    -0.808858593766E+03   -0.51295E-03   -0.51311E-03  2208   0.367E-02 0.258E-04
CGA:  16    -0.808858799841E+03   -0.20607E-03   -0.20607E-03  2208   0.366E-02 0.552E-06
CGA:  17    -0.808858961808E+03   -0.16197E-03   -0.16198E-03  2208   0.430E-02 0.262E-05
CGA:  18    -0.808859192414E+03   -0.23061E-03   -0.23059E-03  2208   0.289E-02 0.210E-05
CGA:  19    -0.808859307649E+03   -0.11524E-03   -0.11529E-03  2208   0.124E-02 0.359E-05
CGA:  20    -0.808859351598E+03   -0.43949E-04   -0.43976E-04  2208   0.125E-02 0.147E-05
CGA:  21    -0.808859411139E+03   -0.59541E-04   -0.59541E-04  2208   0.977E-03 0.324E-05
CGA:  22    -0.808859496391E+03   -0.85252E-04   -0.84974E-04  2208   0.740E-03 0.682E-05
CGA:  23    -0.808859531159E+03   -0.34768E-04   -0.34770E-04  2208   0.441E-03 0.427E-06
CGA:  24    -0.808859545465E+03   -0.14306E-04   -0.14296E-04  2208   0.344E-03-0.951E-06
CGA:  25    -0.808859568919E+03   -0.23454E-04   -0.23516E-04  2208   0.373E-03-0.315E-05
CGA:  26    -0.808859590816E+03   -0.21897E-04   -0.21928E-04  2208   0.436E-03-0.318E-05
CGA:  27    -0.808859601661E+03   -0.10844E-04   -0.10831E-04  2208   0.131E-03-0.844E-06
CGA:  28    -0.808859608324E+03   -0.66631E-05   -0.66614E-05  2208   0.122E-03 0.848E-06
CGA:  29    -0.808859618678E+03   -0.10354E-04   -0.10239E-04  2208   0.135E-03 0.320E-05
CGA:  30    -0.808859626734E+03   -0.80560E-05   -0.80407E-05  2208   0.136E-03 0.185E-05
   9 F= -.80885963E+03 E0= -.80880822E+03  d E =-.283978E-01  mag=    66.0000
       N       E                     dE             d eps       ncg     rms          ort
SDA:   1    -0.806560912433E+03    0.22987E+01    0.00000E+00  2208   0.124E+02 0.000E+00
CGA:   2    -0.806987292363E+03   -0.42638E+00   -0.41416E+00  2208   0.147E+02-0.207E-02
CGA:   3    -0.808009755335E+03   -0.10225E+01   -0.10227E+01  2208   0.559E+01-0.121E-01
CGA:   4    -0.808264707824E+03   -0.25495E+00   -0.25573E+00  2208   0.435E+01 0.787E-01
CGA:   5    -0.808427244062E+03   -0.16254E+00   -0.16178E+00  2208   0.457E+01-0.871E-02
CGA:   6    -0.808707270476E+03   -0.28003E+00   -0.28032E+00  2208   0.171E+01-0.172E-01
CGA:   7    -0.808787579804E+03   -0.80309E-01   -0.80333E-01  2208   0.597E+00 0.417E-02
CGA:   8    -0.808809335336E+03   -0.21756E-01   -0.21809E-01  2208   0.370E+00 0.813E-03
CGA:   9    -0.808826723108E+03   -0.17388E-01   -0.17395E-01  2208   0.456E+00 0.188E-02
CGA:  10    -0.808847440432E+03   -0.20717E-01   -0.20715E-01  2208   0.122E+00-0.257E-03
CGA:  11    -0.808853183550E+03   -0.57431E-02   -0.57438E-02  2208   0.382E-01 0.227E-03
CGA:  12    -0.808855908801E+03   -0.27253E-02   -0.27246E-02  2208   0.425E-01 0.337E-04
CGA:  13    -0.808858424287E+03   -0.25155E-02   -0.25133E-02  2208   0.440E-01 0.167E-03
CGA:  14    -0.808859709593E+03   -0.12853E-02   -0.12882E-02  2208   0.208E-01-0.551E-05
CGA:  15    -0.808860560603E+03   -0.85101E-03   -0.85134E-03  2208   0.805E-02 0.142E-04
CGA:  16    -0.808861057402E+03   -0.49680E-03   -0.49653E-03  2208   0.101E-01 0.112E-04
CGA:  17    -0.808861496427E+03   -0.43902E-03   -0.43906E-03  2208   0.119E-01-0.586E-06
CGA:  18    -0.808862153241E+03   -0.65681E-03   -0.65650E-03  2208   0.507E-02 0.316E-04
CGA:  19    -0.808862418977E+03   -0.26574E-03   -0.26572E-03  2208   0.291E-02 0.305E-05
CGA:  20    -0.808862635232E+03   -0.21625E-03   -0.21613E-03  2208   0.355E-02 0.376E-05
CGA:  21    -0.808862896639E+03   -0.26141E-03   -0.26120E-03  2208   0.532E-02 0.807E-05
CGA:  22    -0.808863038855E+03   -0.14222E-03   -0.14256E-03  2208   0.179E-02 0.639E-06
CGA:  23    -0.808863140503E+03   -0.10165E-03   -0.10163E-03  2208   0.901E-03 0.256E-05
CGA:  24    -0.808863199534E+03   -0.59031E-04   -0.59009E-04  2208   0.214E-02 0.159E-05
CGA:  25    -0.808863299628E+03   -0.10009E-03   -0.10011E-03  2208   0.849E-03 0.325E-05
CGA:  26    -0.808863341964E+03   -0.42336E-04   -0.42340E-04  2208   0.380E-03 0.845E-06
CGA:  27    -0.808863370069E+03   -0.28105E-04   -0.28069E-04  2208   0.572E-03 0.102E-05
CGA:  28    -0.808863403369E+03   -0.33301E-04   -0.33291E-04  2208   0.726E-03 0.154E-05
CGA:  29    -0.808863426325E+03   -0.22955E-04   -0.22971E-04  2208   0.297E-03 0.419E-06
CGA:  30    -0.808863441833E+03   -0.15508E-04   -0.15507E-04  2208   0.171E-03-0.826E-06
CGA:  31    -0.808863452991E+03   -0.11158E-04   -0.11176E-04  2208   0.316E-03-0.169E-05
SDA:  32    -0.808863466044E+03   -0.13053E-04   -0.13038E-04  2208   0.215E-03-0.181E-05
CGA:  33    -0.808863471566E+03   -0.55222E-05   -0.55169E-05  2208   0.851E-04-0.570E-06
  10 F= -.80886347E+03 E0= -.80881418E+03  d E =-.384483E-02  mag=    66.0000
       N       E                     dE             d eps       ncg     rms          ort
SDA:   1    -0.796410795406E+03    0.12453E+02    0.00000E+00  2208   0.470E+02 0.000E+00
CGA:   2    -0.801325826731E+03   -0.49150E+01   -0.51269E+01  2208   0.891E+02-0.299E+01
CGA:   3    -0.804383288067E+03   -0.30575E+01   -0.31068E+01  2208   0.411E+02 0.311E-01
CGA:   4    -0.805676913823E+03   -0.12936E+01   -0.11754E+01  2208   0.153E+02 0.196E+01
CGA:   5    -0.807237990408E+03   -0.15611E+01   -0.15683E+01  2208   0.212E+02-0.178E+00
CGA:   6    -0.808062810280E+03   -0.82482E+00   -0.83080E+00  2208   0.132E+02 0.972E-01
CGA:   7    -0.808396803915E+03   -0.33399E+00   -0.33729E+00  2208   0.377E+01-0.461E-01
CGA:   8    -0.808538822870E+03   -0.14202E+00   -0.14255E+00  2208   0.189E+01 0.725E-02
CGA:   9    -0.808634574916E+03   -0.95752E-01   -0.95752E-01  2208   0.264E+01-0.395E-02
CGA:  10    -0.808739665866E+03   -0.10509E+00   -0.10504E+00  2208   0.125E+01-0.621E-03
CGA:  11    -0.808789482566E+03   -0.49817E-01   -0.49718E-01  2208   0.228E+00-0.174E-02
CGA:  12    -0.808798136491E+03   -0.86539E-02   -0.86381E-02  2208   0.257E+00-0.212E-03
CGA:  13    -0.808811515093E+03   -0.13379E-01   -0.13372E-01  2208   0.251E+00 0.125E-02
CGA:  14    -0.808826841132E+03   -0.15326E-01   -0.15313E-01  2208   0.114E+00 0.812E-03
CGA:  15    -0.808831906352E+03   -0.50652E-02   -0.50646E-02  2208   0.537E-01-0.275E-04
CGA:  16    -0.808833783756E+03   -0.18774E-02   -0.18801E-02  2208   0.519E-01 0.270E-04
CGA:  17    -0.808836955098E+03   -0.31713E-02   -0.31649E-02  2208   0.485E-01 0.372E-03
CGA:  18    -0.808841140358E+03   -0.41853E-02   -0.41801E-02  2208   0.407E-01 0.113E-03
CGA:  19    -0.808842573013E+03   -0.14327E-02   -0.14338E-02  2208   0.228E-01 0.180E-04
CGA:  20    -0.808843388101E+03   -0.81509E-03   -0.81551E-03  2208   0.162E-01 0.104E-04
CGA:  21    -0.808844851547E+03   -0.14634E-02   -0.14592E-02  2208   0.221E-01 0.999E-04
CGA:  22    -0.808845876555E+03   -0.10250E-02   -0.10252E-02  2208   0.207E-01 0.342E-04
CGA:  23    -0.808846646660E+03   -0.77010E-03   -0.77147E-03  2208   0.877E-02 0.298E-04
CGA:  24    -0.808847091281E+03   -0.44462E-03   -0.44462E-03  2208   0.520E-02 0.102E-04
CGA:  25    -0.808847520626E+03   -0.42935E-03   -0.42918E-03  2208   0.745E-02 0.372E-05
CGA:  26    -0.808847828379E+03   -0.30775E-03   -0.30785E-03  2208   0.708E-02 0.136E-05
CGA:  27    -0.808848110863E+03   -0.28248E-03   -0.28245E-03  2208   0.223E-02-0.168E-05
CGA:  28    -0.808848272035E+03   -0.16117E-03   -0.16107E-03  2208   0.216E-02 0.399E-05
CGA:  29    -0.808848477184E+03   -0.20515E-03   -0.20481E-03  2208   0.286E-02 0.671E-05
CGA:  30    -0.808848573630E+03   -0.96446E-04   -0.96440E-04  2208   0.200E-02 0.116E-05
CGA:  31    -0.808848661508E+03   -0.87878E-04   -0.87880E-04  2208   0.785E-03-0.479E-06
SDA:  32    -0.808848713315E+03   -0.51806E-04   -0.51842E-04  2208   0.974E-03-0.322E-05
CGA:  33    -0.808848743849E+03   -0.30535E-04   -0.30513E-04  2208   0.496E-03-0.171E-05
CGA:  34    -0.808848772202E+03   -0.28352E-04   -0.28367E-04  2208   0.686E-03-0.345E-05
CGA:  35    -0.808848814115E+03   -0.41913E-04   -0.41965E-04  2208   0.577E-03-0.608E-05
CGA:  36    -0.808848848989E+03   -0.34874E-04   -0.34911E-04  2208   0.298E-03-0.499E-05
CGA:  37    -0.808848864488E+03   -0.15499E-04   -0.15498E-04  2208   0.278E-03-0.510E-06
CGA:  38    -0.808848875646E+03   -0.11159E-04   -0.11166E-04  2208   0.280E-03 0.375E-06
CGA:  39    -0.808848896983E+03   -0.21336E-04   -0.21265E-04  2208   0.231E-03 0.286E-05
CGA:  40    -0.808848915825E+03   -0.18843E-04   -0.18795E-04  2208   0.146E-03 0.157E-05
CGA:  41    -0.808848925663E+03   -0.98374E-05   -0.98523E-05  2208   0.193E-03-0.151E-05
  11 F= -.80884893E+03 E0= -.80880401E+03  d E =0.145459E-01  mag=    66.0000
       N       E                     dE             d eps       ncg     rms          ort
SDA:   1    -0.791234469267E+03    0.17614E+02    0.00000E+00  2208   0.688E+02 0.000E+00
CGA:   2    -0.796869898757E+03   -0.56354E+01   -0.56125E+01  2208   0.108E+03 0.137E+01
CGA:   3    -0.802091409249E+03   -0.52215E+01   -0.52402E+01  2208   0.732E+02 0.478E+00
CGA:   4    -0.804260727391E+03   -0.21693E+01   -0.20127E+01  2208   0.233E+02 0.365E+01
CGA:   5    -0.806038105503E+03   -0.17774E+01   -0.18050E+01  2208   0.350E+02-0.115E+01
CGA:   6    -0.807312757884E+03   -0.12747E+01   -0.12755E+01  2208   0.280E+02 0.343E-01
CGA:   7    -0.808068838042E+03   -0.75608E+00   -0.72067E+00  2208   0.681E+01 0.803E+00
CGA:   8    -0.808337073779E+03   -0.26824E+00   -0.27040E+00  2208   0.357E+01 0.210E-01
CGA:   9    -0.808442741855E+03   -0.10567E+00   -0.10862E+00  2208   0.297E+01-0.296E-01
CGA:  10    -0.808603973801E+03   -0.16123E+00   -0.16126E+00  2208   0.205E+01-0.460E-02
CGA:  11    -0.808673975574E+03   -0.70002E-01   -0.69926E-01  2208   0.149E+01 0.286E-03
CGA:  12    -0.808727013805E+03   -0.53038E-01   -0.53798E-01  2208   0.371E+00 0.641E-02
CGA:  13    -0.808740686141E+03   -0.13672E-01   -0.13700E-01  2208   0.346E+00 0.303E-03
CGA:  14    -0.808754885092E+03   -0.14199E-01   -0.14224E-01  2208   0.264E+00 0.986E-03
CGA:  15    -0.808771840616E+03   -0.16956E-01   -0.16924E-01  2208   0.226E+00 0.154E-02
CGA:  16    -0.808781058953E+03   -0.92183E-02   -0.92312E-02  2208   0.121E+00 0.433E-03
CGA:  17    -0.808784482063E+03   -0.34231E-02   -0.34343E-02  2208   0.672E-01-0.973E-04
CGA:  18    -0.808788410885E+03   -0.39288E-02   -0.39255E-02  2208   0.469E-01 0.219E-03
CGA:  19    -0.808792442154E+03   -0.40313E-02   -0.40218E-02  2208   0.898E-01 0.243E-03
CGA:  20    -0.808795622775E+03   -0.31806E-02   -0.31884E-02  2208   0.541E-01 0.553E-04
CGA:  21    -0.808797615704E+03   -0.19929E-02   -0.19944E-02  2208   0.181E-01 0.229E-04
CGA:  22    -0.808798927305E+03   -0.13116E-02   -0.13093E-02  2208   0.260E-01 0.844E-04
CGA:  23    -0.808800161712E+03   -0.12344E-02   -0.12347E-02  2208   0.286E-01 0.515E-04
CGA:  24    -0.808801773570E+03   -0.16119E-02   -0.16116E-02  2208   0.146E-01 0.254E-04
CGA:  25    -0.808802191423E+03   -0.41785E-03   -0.41948E-03  2208   0.718E-02-0.120E-04
CGA:  26    -0.808802649358E+03   -0.45793E-03   -0.45769E-03  2208   0.820E-02 0.127E-04
CGA:  27    -0.808803235771E+03   -0.58641E-03   -0.58624E-03  2208   0.621E-02 0.654E-05
CGA:  28    -0.808803552395E+03   -0.31662E-03   -0.31662E-03  2208   0.540E-02-0.315E-07
CGA:  29    -0.808803716200E+03   -0.16380E-03   -0.16371E-03  2208   0.266E-02 0.700E-07
CGA:  30    -0.808803947153E+03   -0.23095E-03   -0.23066E-03  2208   0.300E-02 0.792E-05
CGA:  31    -0.808804136231E+03   -0.18908E-03   -0.18902E-03  2208   0.205E-02 0.458E-05
SDA:  32    -0.808804238836E+03   -0.10261E-03   -0.10260E-03  2208   0.212E-02 0.366E-06
CGA:  33    -0.808804280286E+03   -0.41450E-04   -0.41518E-04  2208   0.631E-03-0.283E-05
CGA:  34    -0.808804340280E+03   -0.59995E-04   -0.60144E-04  2208   0.113E-02-0.333E-05
CGA:  35    -0.808804426161E+03   -0.85881E-04   -0.86015E-04  2208   0.724E-03-0.570E-05
CGA:  36    -0.808804459020E+03   -0.32859E-04   -0.32841E-04  2208   0.502E-03-0.239E-05
CGA:  37    -0.808804481952E+03   -0.22931E-04   -0.22917E-04  2208   0.380E-03-0.188E-05
CGA:  38    -0.808804515514E+03   -0.33562E-04   -0.33655E-04  2208   0.501E-03-0.292E-05
CGA:  39    -0.808804552465E+03   -0.36951E-04   -0.37017E-04  2208   0.315E-03-0.364E-05
CGA:  40    -0.808804576157E+03   -0.23692E-04   -0.23705E-04  2208   0.208E-03-0.815E-06
CGA:  41    -0.808804585793E+03   -0.96361E-05   -0.96346E-05  2208   0.268E-03-0.308E-06
CGA:  42    -0.808804600945E+03   -0.15152E-04   -0.15151E-04  2208   0.244E-03 0.508E-06
CGA:  43    -0.808804617257E+03   -0.16312E-04   -0.16309E-04  2208   0.163E-03 0.281E-06
CGA:  44    -0.808804624068E+03   -0.68114E-05   -0.68084E-05  2208   0.117E-03-0.182E-06
  12 F= -.80880462E+03 E0= -.80876228E+03  d E =0.443016E-01  mag=    66.0000
       N       E                     dE             d eps       ncg     rms          ort
SDA:   1    -0.802560662988E+03    0.62440E+01    0.00000E+00  2208   0.267E+02 0.000E+00
CGA:   2    -0.804726268537E+03   -0.21656E+01   -0.21640E+01  2208   0.456E+02 0.113E+00
CGA:   3    -0.806333034109E+03   -0.16068E+01   -0.16605E+01  2208   0.229E+02-0.172E+00
CGA:   4    -0.807212847919E+03   -0.87981E+00   -0.84991E+00  2208   0.812E+01 0.222E-01
CGA:   5    -0.808013010099E+03   -0.80016E+00   -0.81665E+00  2208   0.108E+02-0.391E+00
CGA:   6    -0.808472926622E+03   -0.45992E+00   -0.46122E+00  2208   0.595E+01 0.230E-01
CGA:   7    -0.808660844543E+03   -0.18792E+00   -0.18002E+00  2208   0.927E+00 0.126E+00
CGA:   8    -0.808738665430E+03   -0.77821E-01   -0.77285E-01  2208   0.876E+00 0.169E-01
CGA:   9    -0.808801396954E+03   -0.62732E-01   -0.63003E-01  2208   0.528E+00-0.126E-01
CGA:  10    -0.808820551138E+03   -0.19154E-01   -0.19290E-01  2208   0.278E+00-0.170E-03
CGA:  11    -0.808830324606E+03   -0.97735E-02   -0.97686E-02  2208   0.104E+00 0.591E-04
CGA:  12    -0.808836207943E+03   -0.58833E-02   -0.58825E-02  2208   0.123E+00 0.389E-03
CGA:  13    -0.808842272158E+03   -0.60642E-02   -0.60655E-02  2208   0.101E+00 0.125E-03
CGA:  14    -0.808846995568E+03   -0.47234E-02   -0.47259E-02  2208   0.258E-01 0.136E-03
CGA:  15    -0.808848572492E+03   -0.15769E-02   -0.15764E-02  2208   0.209E-01 0.569E-04
CGA:  16    -0.808849970642E+03   -0.13982E-02   -0.13977E-02  2208   0.258E-01 0.322E-04
CGA:  17    -0.808851045972E+03   -0.10753E-02   -0.10764E-02  2208   0.211E-01 0.163E-04
CGA:  18    -0.808852309712E+03   -0.12637E-02   -0.12633E-02  2208   0.108E-01 0.610E-04
CGA:  19    -0.808852770835E+03   -0.46112E-03   -0.46094E-03  2208   0.859E-02-0.616E-07
CGA:  20    -0.808853247885E+03   -0.47705E-03   -0.47700E-03  2208   0.650E-02 0.296E-04
CGA:  21    -0.808853846811E+03   -0.59893E-03   -0.59802E-03  2208   0.695E-02 0.226E-04
CGA:  22    -0.808854196286E+03   -0.34947E-03   -0.34956E-03  2208   0.480E-02 0.826E-05
CGA:  23    -0.808854347193E+03   -0.15091E-03   -0.15079E-03  2208   0.228E-02 0.760E-06
CGA:  24    -0.808854523402E+03   -0.17621E-03   -0.17617E-03  2208   0.224E-02 0.634E-06
CGA:  25    -0.808854686788E+03   -0.16339E-03   -0.16347E-03  2208   0.275E-02-0.496E-05
CGA:  26    -0.808854786072E+03   -0.99284E-04   -0.99227E-04  2208   0.949E-03-0.255E-05
CGA:  27    -0.808854849325E+03   -0.63253E-04   -0.63262E-04  2208   0.999E-03-0.119E-05
CGA:  28    -0.808854907283E+03   -0.57958E-04   -0.57958E-04  2208   0.139E-02-0.601E-06
CGA:  29    -0.808854968852E+03   -0.61570E-04   -0.61539E-04  2208   0.605E-03-0.190E-05
CGA:  30    -0.808855011902E+03   -0.43049E-04   -0.43038E-04  2208   0.404E-03 0.492E-06
CGA:  31    -0.808855035225E+03   -0.23323E-04   -0.23323E-04  2208   0.409E-03-0.610E-06
SDA:  32    -0.808855056347E+03   -0.21122E-04   -0.21122E-04  2208   0.435E-03-0.330E-06
CGA:  33    -0.808855066895E+03   -0.10548E-04   -0.10529E-04  2208   0.175E-03-0.373E-06
CGA:  34    -0.808855076710E+03   -0.98152E-05   -0.98158E-05  2208   0.161E-03-0.624E-06
CGA:  35    -0.808855087705E+03   -0.10995E-04   -0.11012E-04  2208   0.171E-03-0.130E-05
CGA:  36    -0.808855100165E+03   -0.12460E-04   -0.12475E-04  2208   0.203E-03-0.906E-06
CGA:  37    -0.808855107780E+03   -0.76148E-05   -0.76119E-05  2208   0.804E-04-0.299E-06
  13 F= -.80885511E+03 E0= -.80881416E+03  d E =-.504837E-01  mag=    66.0000
       N       E                     dE             d eps       ncg     rms          ort
SDA:   1    -0.807447322802E+03    0.14078E+01    0.00000E+00  2208   0.533E+01 0.000E+00
CGA:   2    -0.808083524109E+03   -0.63620E+00   -0.62519E+00  2208   0.712E+01 0.186E+00
CGA:   3    -0.808397914771E+03   -0.31439E+00   -0.30520E+00  2208   0.356E+01-0.401E-01
CGA:   4    -0.808519067637E+03   -0.12115E+00   -0.12047E+00  2208   0.243E+01 0.487E-02
CGA:   5    -0.808709084162E+03   -0.19002E+00   -0.19045E+00  2208   0.193E+01-0.159E-01
CGA:   6    -0.808812319544E+03   -0.10324E+00   -0.10331E+00  2208   0.548E+00 0.758E-02
CGA:   7    -0.808832124631E+03   -0.19805E-01   -0.19666E-01  2208   0.299E+00 0.815E-03
CGA:   8    -0.808848667000E+03   -0.16542E-01   -0.16544E-01  2208   0.228E+00 0.677E-03
CGA:   9    -0.808861766907E+03   -0.13100E-01   -0.13099E-01  2208   0.977E-01 0.766E-03
CGA:  10    -0.808867377808E+03   -0.56109E-02   -0.56110E-02  2208   0.270E-01-0.159E-03
CGA:  11    -0.808869523491E+03   -0.21457E-02   -0.21455E-02  2208   0.234E-01 0.696E-05
CGA:  12    -0.808871400409E+03   -0.18769E-02   -0.18765E-02  2208   0.215E-01 0.184E-04
CGA:  13    -0.808872062364E+03   -0.66195E-03   -0.66181E-03  2208   0.990E-02 0.507E-05
CGA:  14    -0.808872483906E+03   -0.42154E-03   -0.42206E-03  2208   0.539E-02 0.854E-05
CGA:  15    -0.808872872500E+03   -0.38859E-03   -0.38854E-03  2208   0.628E-02 0.438E-05
CGA:  16    -0.808873170395E+03   -0.29790E-03   -0.29789E-03  2208   0.532E-02 0.493E-05
CGA:  17    -0.808873456090E+03   -0.28570E-03   -0.28575E-03  2208   0.200E-02 0.110E-04
CGA:  18    -0.808873607860E+03   -0.15177E-03   -0.15168E-03  2208   0.176E-02 0.376E-05
CGA:  19    -0.808873788970E+03   -0.18111E-03   -0.18105E-03  2208   0.212E-02 0.128E-05
CGA:  20    -0.808873905686E+03   -0.11672E-03   -0.11671E-03  2208   0.156E-02-0.173E-05
CGA:  21    -0.808873953687E+03   -0.48001E-04   -0.48026E-04  2208   0.789E-03-0.822E-06
CGA:  22    -0.808874004516E+03   -0.50830E-04   -0.50839E-04  2208   0.758E-03-0.134E-05
CGA:  23    -0.808874074452E+03   -0.69936E-04   -0.69979E-04  2208   0.433E-03-0.137E-05
CGA:  24    -0.808874103930E+03   -0.29478E-04   -0.29485E-04  2208   0.318E-03-0.861E-06
CGA:  25    -0.808874117978E+03   -0.14048E-04   -0.14053E-04  2208   0.325E-03 0.676E-07
CGA:  26    -0.808874137276E+03   -0.19298E-04   -0.19297E-04  2208   0.298E-03-0.436E-07
CGA:  27    -0.808874154059E+03   -0.16783E-04   -0.16783E-04  2208   0.238E-03-0.281E-06
CGA:  28    -0.808874163197E+03   -0.91375E-05   -0.91212E-05  2208   0.136E-03-0.642E-06
  14 F= -.80887416E+03 E0= -.80883275E+03  d E =-.190554E-01  mag=    66.0000
       N       E                     dE             d eps       ncg     rms          ort
SDA:   1    -0.807966409899E+03    0.90774E+00    0.00000E+00  2208   0.341E+01 0.000E+00
CGA:   2    -0.808249590333E+03   -0.28318E+00   -0.27658E+00  2208   0.663E+01 0.227E+00
CGA:   3    -0.808526533760E+03   -0.27694E+00   -0.27433E+00  2208   0.323E+01 0.379E-03
CGA:   4    -0.808660656209E+03   -0.13412E+00   -0.13360E+00  2208   0.111E+01-0.391E-02
CGA:   5    -0.808765820520E+03   -0.10516E+00   -0.10587E+00  2208   0.157E+01-0.167E-01
CGA:   6    -0.808829313212E+03   -0.63493E-01   -0.63767E-01  2208   0.666E+00 0.979E-03
CGA:   7    -0.808847083308E+03   -0.17770E-01   -0.17627E-01  2208   0.186E+00 0.314E-02
CGA:   8    -0.808859511036E+03   -0.12428E-01   -0.12425E-01  2208   0.133E+00 0.194E-03
CGA:   9    -0.808867936030E+03   -0.84250E-02   -0.84256E-02  2208   0.109E+00-0.311E-04
CGA:  10    -0.808871437794E+03   -0.35018E-02   -0.35068E-02  2208   0.514E-01-0.369E-04
CGA:  11    -0.808873607010E+03   -0.21692E-02   -0.21705E-02  2208   0.156E-01 0.249E-04
CGA:  12    -0.808874797477E+03   -0.11905E-02   -0.11895E-02  2208   0.178E-01 0.396E-04
CGA:  13    -0.808875526917E+03   -0.72944E-03   -0.72909E-03  2208   0.142E-01 0.386E-05
CGA:  14    -0.808876219106E+03   -0.69219E-03   -0.69242E-03  2208   0.589E-02 0.167E-04
CGA:  15    -0.808876503481E+03   -0.28438E-03   -0.28442E-03  2208   0.399E-02 0.459E-05
CGA:  16    -0.808876691824E+03   -0.18834E-03   -0.18838E-03  2208   0.397E-02 0.249E-05
CGA:  17    -0.808876957413E+03   -0.26559E-03   -0.26563E-03  2208   0.323E-02-0.230E-05
CGA:  18    -0.808877139318E+03   -0.18190E-03   -0.18190E-03  2208   0.301E-02 0.268E-05
CGA:  19    -0.808877245532E+03   -0.10621E-03   -0.10617E-03  2208   0.143E-02-0.960E-06
CGA:  20    -0.808877340179E+03   -0.94647E-04   -0.94657E-04  2208   0.145E-02-0.685E-06
CGA:  21    -0.808877468339E+03   -0.12816E-03   -0.12819E-03  2208   0.180E-02-0.696E-06
CGA:  22    -0.808877521028E+03   -0.52689E-04   -0.52762E-04  2208   0.682E-03 0.689E-06
CGA:  23    -0.808877559892E+03   -0.38864E-04   -0.38862E-04  2208   0.481E-03 0.160E-05
CGA:  24    -0.808877596079E+03   -0.36187E-04   -0.36122E-04  2208   0.581E-03 0.331E-05
CGA:  25    -0.808877624580E+03   -0.28502E-04   -0.28519E-04  2208   0.487E-03 0.213E-05
CGA:  26    -0.808877641694E+03   -0.17113E-04   -0.17147E-04  2208   0.162E-03 0.142E-05
CGA:  27    -0.808877654541E+03   -0.12847E-04   -0.12854E-04  2208   0.174E-03-0.329E-06
CGA:  28    -0.808877665716E+03   -0.11176E-04   -0.11182E-04  2208   0.275E-03-0.714E-06
CGA:  29    -0.808877677131E+03   -0.11415E-04   -0.11397E-04  2208   0.105E-03-0.125E-05
CGA:  30    -0.808877682686E+03   -0.55551E-05   -0.55531E-05  2208   0.617E-04-0.450E-06
  15 F= -.80887768E+03 E0= -.80883627E+03  d E =-.351949E-02  mag=    66.0000
       N       E                     dE             d eps       ncg     rms          ort
SDA:   1    -0.801093826863E+03    0.77839E+01    0.00000E+00  2208   0.299E+02 0.000E+00
CGA:   2    -0.803398995446E+03   -0.23052E+01   -0.23512E+01  2208   0.612E+02-0.158E+01
CGA:   3    -0.806062618773E+03   -0.26636E+01   -0.26468E+01  2208   0.255E+02-0.317E+00
CGA:   4    -0.806901777657E+03   -0.83916E+00   -0.87445E+00  2208   0.128E+02-0.150E+00
CGA:   5    -0.807514967058E+03   -0.61319E+00   -0.60479E+00  2208   0.163E+02-0.353E+00
CGA:   6    -0.808342957209E+03   -0.82799E+00   -0.82679E+00  2208   0.742E+01-0.180E+00
CGA:   7    -0.808592870246E+03   -0.24991E+00   -0.25302E+00  2208   0.266E+01-0.166E-01
CGA:   8    -0.808670698977E+03   -0.77829E-01   -0.76647E-01  2208   0.126E+01 0.198E-01
CGA:   9    -0.808745821533E+03   -0.75123E-01   -0.75040E-01  2208   0.135E+01 0.792E-02
CGA:  10    -0.808811279663E+03   -0.65458E-01   -0.65497E-01  2208   0.867E+00 0.347E-02
CGA:  11    -0.808837073338E+03   -0.25794E-01   -0.25878E-01  2208   0.181E+00-0.660E-03
CGA:  12    -0.808848302953E+03   -0.11230E-01   -0.11222E-01  2208   0.160E+00 0.529E-03
CGA:  13    -0.808854422050E+03   -0.61191E-02   -0.61213E-02  2208   0.141E+00 0.520E-04
CGA:  14    -0.808861924109E+03   -0.75021E-02   -0.74992E-02  2208   0.902E-01 0.880E-03
CGA:  15    -0.808866981443E+03   -0.50573E-02   -0.50562E-02  2208   0.559E-01 0.214E-03
CGA:  16    -0.808868803793E+03   -0.18223E-02   -0.18279E-02  2208   0.246E-01-0.131E-05
CGA:  17    -0.808870581453E+03   -0.17777E-02   -0.17753E-02  2208   0.285E-01 0.795E-04
CGA:  18    -0.808872297210E+03   -0.17158E-02   -0.17156E-02  2208   0.396E-01 0.830E-05
CGA:  19    -0.808873816504E+03   -0.15193E-02   -0.15215E-02  2208   0.187E-01 0.274E-04
CGA:  20    -0.808874791928E+03   -0.97542E-03   -0.97540E-03  2208   0.103E-01 0.270E-04
CGA:  21    -0.808875451152E+03   -0.65922E-03   -0.65904E-03  2208   0.127E-01 0.961E-05
CGA:  22    -0.808876155197E+03   -0.70405E-03   -0.70393E-03  2208   0.126E-01 0.229E-04
CGA:  23    -0.808876834576E+03   -0.67938E-03   -0.67938E-03  2208   0.722E-02-0.313E-05
CGA:  24    -0.808877105569E+03   -0.27099E-03   -0.27121E-03  2208   0.507E-02 0.542E-05
CGA:  25    -0.808877327398E+03   -0.22183E-03   -0.22183E-03  2208   0.293E-02 0.231E-05
CGA:  26    -0.808877596614E+03   -0.26922E-03   -0.26883E-03  2208   0.336E-02 0.804E-05
CGA:  27    -0.808877783471E+03   -0.18686E-03   -0.18685E-03  2208   0.242E-02 0.286E-05
CGA:  28    -0.808877877736E+03   -0.94264E-04   -0.94276E-04  2208   0.134E-02 0.652E-06
CGA:  29    -0.808877965692E+03   -0.87957E-04   -0.87961E-04  2208   0.120E-02-0.146E-05
CGA:  30    -0.808878027084E+03   -0.61392E-04   -0.61386E-04  2208   0.173E-02-0.307E-05
CGA:  31    -0.808878118286E+03   -0.91202E-04   -0.91202E-04  2208   0.570E-03-0.341E-05
SDA:  32    -0.808878149314E+03   -0.31028E-04   -0.31029E-04  2208   0.477E-03-0.182E-05
CGA:  33    -0.808878164897E+03   -0.15583E-04   -0.15579E-04  2208   0.251E-03-0.675E-06
CGA:  34    -0.808878194710E+03   -0.29813E-04   -0.29848E-04  2208   0.557E-03-0.920E-06
CGA:  35    -0.808878220495E+03   -0.25785E-04   -0.25776E-04  2208   0.201E-03-0.127E-05
CGA:  36    -0.808878234485E+03   -0.13990E-04   -0.14006E-04  2208   0.115E-03-0.138E-05
CGA:  37    -0.808878244220E+03   -0.97354E-05   -0.97661E-05  2208   0.272E-03-0.131E-05
CGA:  38    -0.808878256006E+03   -0.11786E-04   -0.11760E-04  2208   0.205E-03-0.201E-05
CGA:  39    -0.808878268767E+03   -0.12761E-04   -0.12773E-04  2208   0.951E-04-0.220E-05
CGA:  40    -0.808878275724E+03   -0.69569E-05   -0.69730E-05  2208   0.735E-04-0.114E-05
  16 F= -.80887828E+03 E0= -.80883733E+03  d E =-.593038E-03  mag=    66.0000
       N       E                     dE             d eps       ncg     rms          ort
SDA:   1    -0.805986676343E+03    0.28916E+01    0.00000E+00  2208   0.109E+02 0.000E+00
CGA:   2    -0.807203625576E+03   -0.12169E+01   -0.12257E+01  2208   0.242E+02-0.151E+00
CGA:   3    -0.807880352531E+03   -0.67673E+00   -0.71192E+00  2208   0.606E+01-0.618E+00
CGA:   4    -0.808217983303E+03   -0.33763E+00   -0.33748E+00  2208   0.592E+01-0.164E-01
CGA:   5    -0.808467664283E+03   -0.24968E+00   -0.25150E+00  2208   0.482E+01 0.584E-02
CGA:   6    -0.808746419977E+03   -0.27876E+00   -0.27892E+00  2208   0.138E+01 0.343E-01
CGA:   7    -0.808806816551E+03   -0.60397E-01   -0.59871E-01  2208   0.486E+00-0.310E-02
CGA:   8    -0.808829691508E+03   -0.22875E-01   -0.22792E-01  2208   0.649E+00-0.157E-02
CGA:   9    -0.808865293262E+03   -0.35602E-01   -0.35610E-01  2208   0.197E+00 0.106E-02
CGA:  10    -0.808875493120E+03   -0.10200E-01   -0.10197E-01  2208   0.924E-01-0.156E-03
CGA:  11    -0.808879393926E+03   -0.39008E-02   -0.39053E-02  2208   0.641E-01 0.713E-04
CGA:  12    -0.808882594750E+03   -0.32008E-02   -0.32013E-02  2208   0.495E-01 0.359E-04
CGA:  13    -0.808885529318E+03   -0.29346E-02   -0.29343E-02  2208   0.401E-01 0.744E-04
CGA:  14    -0.808886971944E+03   -0.14426E-02   -0.14428E-02  2208   0.182E-01 0.118E-04
CGA:  15    -0.808887792909E+03   -0.82097E-03   -0.82160E-03  2208   0.918E-02 0.218E-04
CGA:  16    -0.808888538673E+03   -0.74576E-03   -0.74575E-03  2208   0.116E-01 0.183E-05
CGA:  17    -0.808889273567E+03   -0.73489E-03   -0.73465E-03  2208   0.121E-01 0.270E-04
CGA:  18    -0.808889692025E+03   -0.41846E-03   -0.41855E-03  2208   0.556E-02 0.709E-05
CGA:  19    -0.808889995217E+03   -0.30319E-03   -0.30321E-03  2208   0.366E-02 0.727E-05
CGA:  20    -0.808890334151E+03   -0.33893E-03   -0.33883E-03  2208   0.436E-02 0.259E-05
CGA:  21    -0.808890576684E+03   -0.24253E-03   -0.24255E-03  2208   0.518E-02 0.479E-05
CGA:  22    -0.808890769641E+03   -0.19296E-03   -0.19299E-03  2208   0.140E-02-0.163E-05
CGA:  23    -0.808890868542E+03   -0.98901E-04   -0.98909E-04  2208   0.177E-02-0.241E-06
CGA:  24    -0.808890952243E+03   -0.83700E-04   -0.83700E-04  2208   0.150E-02-0.439E-06
CGA:  25    -0.808891058553E+03   -0.10631E-03   -0.10632E-03  2208   0.817E-03-0.709E-06
CGA:  26    -0.808891095425E+03   -0.36871E-04   -0.36852E-04  2208   0.709E-03-0.135E-05
CGA:  27    -0.808891126286E+03   -0.30861E-04   -0.30855E-04  2208   0.494E-03-0.924E-06
CGA:  28    -0.808891168296E+03   -0.42010E-04   -0.42076E-04  2208   0.496E-03-0.237E-05
CGA:  29    -0.808891200674E+03   -0.32378E-04   -0.32391E-04  2208   0.339E-03-0.163E-05
CGA:  30    -0.808891213352E+03   -0.12678E-04   -0.12660E-04  2208   0.260E-03-0.872E-06
CGA:  31    -0.808891227215E+03   -0.13863E-04   -0.13862E-04  2208   0.169E-03-0.603E-06
SDA:  32    -0.808891243944E+03   -0.16729E-04   -0.16767E-04  2208   0.183E-03-0.971E-06
CGA:  33    -0.808891249186E+03   -0.52420E-05   -0.52511E-05  2208   0.731E-04 0.120E-06
  17 F= -.80889125E+03 E0= -.80885007E+03  d E =-.129735E-01  mag=    66.0000
       N       E                     dE             d eps       ncg     rms          ort
SDA:   1    -0.808234759716E+03    0.65648E+00    0.00000E+00  2208   0.274E+01 0.000E+00
CGA:   2    -0.808454617436E+03   -0.21986E+00   -0.21784E+00  2208   0.424E+01 0.691E-01
CGA:   3    -0.808649914268E+03   -0.19530E+00   -0.19601E+00  2208   0.185E+01 0.128E-01
CGA:   4    -0.808735523738E+03   -0.85609E-01   -0.85222E-01  2208   0.862E+00-0.775E-02
CGA:   5    -0.808821939305E+03   -0.86416E-01   -0.86089E-01  2208   0.110E+01 0.713E-02
CGA:   6    -0.808864852085E+03   -0.42913E-01   -0.43150E-01  2208   0.456E+00-0.411E-03
CGA:   7    -0.808876876985E+03   -0.12025E-01   -0.11687E-01  2208   0.104E+00 0.780E-02
CGA:   8    -0.808883654389E+03   -0.67774E-02   -0.67691E-02  2208   0.105E+00 0.680E-03
CGA:   9    -0.808890459376E+03   -0.68050E-02   -0.68067E-02  2208   0.702E-01-0.111E-03
CGA:  10    -0.808892768359E+03   -0.23090E-02   -0.23124E-02  2208   0.183E-01-0.165E-04
CGA:  11    -0.808893708244E+03   -0.93989E-03   -0.93968E-03  2208   0.113E-01-0.165E-04
CGA:  12    -0.808894580099E+03   -0.87186E-03   -0.87180E-03  2208   0.175E-01 0.353E-05
CGA:  13    -0.808895156282E+03   -0.57618E-03   -0.57665E-03  2208   0.654E-02 0.122E-06
CGA:  14    -0.808895445610E+03   -0.28933E-03   -0.28928E-03  2208   0.252E-02-0.771E-06
CGA:  15    -0.808895625792E+03   -0.18018E-03   -0.18011E-03  2208   0.214E-02 0.370E-05
CGA:  16    -0.808895778887E+03   -0.15310E-03   -0.15310E-03  2208   0.298E-02-0.595E-07
CGA:  17    -0.808895917635E+03   -0.13875E-03   -0.13874E-03  2208   0.123E-02-0.331E-06
CGA:  18    -0.808895992602E+03   -0.74967E-04   -0.74966E-04  2208   0.778E-03 0.430E-06
CGA:  19    -0.808896033540E+03   -0.40938E-04   -0.40939E-04  2208   0.111E-02 0.298E-06
CGA:  20    -0.808896091015E+03   -0.57475E-04   -0.57483E-04  2208   0.791E-03 0.167E-05
CGA:  21    -0.808896143719E+03   -0.52704E-04   -0.52695E-04  2208   0.400E-03 0.798E-06
CGA:  22    -0.808896164592E+03   -0.20873E-04   -0.20874E-04  2208   0.275E-03 0.126E-06
CGA:  23    -0.808896181695E+03   -0.17103E-04   -0.17104E-04  2208   0.300E-03-0.401E-07
CGA:  24    -0.808896200981E+03   -0.19285E-04   -0.19286E-04  2208   0.252E-03-0.158E-06
CGA:  25    -0.808896213985E+03   -0.13004E-04   -0.13003E-04  2208   0.902E-04-0.224E-06
CGA:  26    -0.808896219485E+03   -0.55006E-05   -0.54998E-05  2208   0.144E-03 0.112E-06
  18 F= -.80889622E+03 E0= -.80885496E+03  d E =-.497030E-02  mag=    66.0000
       N       E                     dE             d eps       ncg     rms          ort
SDA:   1    -0.808721749326E+03    0.17446E+00    0.00000E+00  2208   0.739E+00 0.000E+00
CGA:   2    -0.808760597242E+03   -0.38848E-01   -0.38852E-01  2208   0.125E+01 0.636E-03
CGA:   3    -0.808827596220E+03   -0.66999E-01   -0.66971E-01  2208   0.616E+00-0.536E-02
CGA:   4    -0.808854529641E+03   -0.26933E-01   -0.27084E-01  2208   0.219E+00 0.299E-02
CGA:   5    -0.808874643796E+03   -0.20114E-01   -0.20157E-01  2208   0.261E+00-0.103E-02
CGA:   6    -0.808888357301E+03   -0.13714E-01   -0.13717E-01  2208   0.120E+00 0.335E-03
CGA:   7    -0.808891476448E+03   -0.31191E-02   -0.31097E-02  2208   0.377E-01 0.202E-03
CGA:   8    -0.808893382057E+03   -0.19056E-02   -0.19054E-02  2208   0.216E-01-0.179E-04
CGA:   9    -0.808895300999E+03   -0.19189E-02   -0.19190E-02  2208   0.187E-01-0.145E-05
CGA:  10    -0.808896014081E+03   -0.71308E-03   -0.71502E-03  2208   0.636E-02 0.110E-04
CGA:  11    -0.808896225976E+03   -0.21189E-03   -0.21173E-03  2208   0.320E-02 0.352E-05
CGA:  12    -0.808896418340E+03   -0.19236E-03   -0.19234E-03  2208   0.283E-02 0.310E-05
CGA:  13    -0.808896568707E+03   -0.15037E-03   -0.15037E-03  2208   0.281E-02 0.126E-05
CGA:  14    -0.808896691696E+03   -0.12299E-03   -0.12302E-03  2208   0.801E-03 0.196E-05
CGA:  15    -0.808896742254E+03   -0.50558E-04   -0.50555E-04  2208   0.463E-03 0.400E-06
CGA:  16    -0.808896770251E+03   -0.27997E-04   -0.27993E-04  2208   0.897E-03 0.653E-06
CGA:  17    -0.808896820858E+03   -0.50607E-04   -0.50608E-04  2208   0.387E-03-0.283E-06
CGA:  18    -0.808896845935E+03   -0.25077E-04   -0.25079E-04  2208   0.210E-03-0.116E-06
CGA:  19    -0.808896859028E+03   -0.13094E-04   -0.13093E-04  2208   0.259E-03 0.475E-07
CGA:  20    -0.808896875175E+03   -0.16147E-04   -0.16143E-04  2208   0.353E-03 0.480E-06
CGA:  21    -0.808896889802E+03   -0.14627E-04   -0.14625E-04  2208   0.127E-03-0.130E-06
CGA:  22    -0.808896897859E+03   -0.80566E-05   -0.80559E-05  2208   0.904E-04-0.167E-07
  19 F= -.80889690E+03 E0= -.80885574E+03  d E =-.678374E-03  mag=    66.0000
       N       E                     dE             d eps       ncg     rms          ort
SDA:   1    -0.804557485712E+03    0.43394E+01    0.00000E+00  2208   0.151E+02 0.000E+00
CGA:   2    -0.806403920230E+03   -0.18464E+01   -0.18883E+01  2208   0.254E+02-0.691E+00
CGA:   3    -0.807459986443E+03   -0.10561E+01   -0.10763E+01  2208   0.112E+02 0.256E+00
CGA:   4    -0.807821582155E+03   -0.36160E+00   -0.36889E+00  2208   0.753E+01-0.944E-01
CGA:   5    -0.808424705265E+03   -0.60312E+00   -0.60444E+00  2208   0.578E+01-0.459E-01
CGA:   6    -0.808723516543E+03   -0.29881E+00   -0.29889E+00  2208   0.135E+01 0.650E-02
CGA:   7    -0.808783912028E+03   -0.60395E-01   -0.59941E-01  2208   0.614E+00-0.574E-02
CGA:   8    -0.808827575596E+03   -0.43664E-01   -0.43790E-01  2208   0.801E+00-0.597E-02
CGA:   9    -0.808862170829E+03   -0.34595E-01   -0.34701E-01  2208   0.252E+00 0.144E-02
CGA:  10    -0.808873817631E+03   -0.11647E-01   -0.11635E-01  2208   0.922E-01-0.248E-03
CGA:  11    -0.808878407263E+03   -0.45896E-02   -0.45915E-02  2208   0.879E-01 0.111E-03
CGA:  12    -0.808882455783E+03   -0.40485E-02   -0.40495E-02  2208   0.778E-01 0.534E-04
CGA:  13    -0.808886981355E+03   -0.45256E-02   -0.45249E-02  2208   0.309E-01 0.189E-03
CGA:  14    -0.808888563588E+03   -0.15822E-02   -0.15827E-02  2208   0.110E-01 0.413E-04
CGA:  15    -0.808889518885E+03   -0.95530E-03   -0.95424E-03  2208   0.169E-01 0.285E-04
CGA:  16    -0.808890618448E+03   -0.10996E-02   -0.10992E-02  2208   0.173E-01 0.328E-04
CGA:  17    -0.808891279263E+03   -0.66081E-03   -0.66053E-03  2208   0.534E-02 0.527E-05
CGA:  18    -0.808891578602E+03   -0.29934E-03   -0.29934E-03  2208   0.630E-02 0.143E-05
CGA:  19    -0.808891903194E+03   -0.32459E-03   -0.32466E-03  2208   0.657E-02 0.849E-05
CGA:  20    -0.808892404166E+03   -0.50097E-03   -0.50075E-03  2208   0.378E-02 0.980E-05
CGA:  21    -0.808892632995E+03   -0.22883E-03   -0.22883E-03  2208   0.167E-02 0.380E-06
CGA:  22    -0.808892749361E+03   -0.11637E-03   -0.11637E-03  2208   0.198E-02-0.954E-06
CGA:  23    -0.808892874936E+03   -0.12557E-03   -0.12557E-03  2208   0.257E-02-0.134E-06
CGA:  24    -0.808892981860E+03   -0.10692E-03   -0.10688E-03  2208   0.104E-02-0.183E-05
CGA:  25    -0.808893037586E+03   -0.55726E-04   -0.55729E-04  2208   0.838E-03 0.313E-06
CGA:  26    -0.808893079094E+03   -0.41508E-04   -0.41517E-04  2208   0.711E-03 0.678E-06
CGA:  27    -0.808893132051E+03   -0.52957E-04   -0.52932E-04  2208   0.576E-03 0.130E-05
CGA:  28    -0.808893174875E+03   -0.42824E-04   -0.42811E-04  2208   0.354E-03 0.701E-06
CGA:  29    -0.808893192395E+03   -0.17520E-04   -0.17522E-04  2208   0.250E-03-0.174E-06
CGA:  30    -0.808893205988E+03   -0.13592E-04   -0.13587E-04  2208   0.350E-03-0.136E-05
CGA:  31    -0.808893226916E+03   -0.20928E-04   -0.20933E-04  2208   0.208E-03-0.255E-05
SDA:  32    -0.808893237832E+03   -0.10916E-04   -0.10908E-04  2208   0.971E-04-0.160E-05
CGA:  33    -0.808893241255E+03   -0.34236E-05   -0.34285E-05  2208   0.649E-04 0.813E-07
  20 F= -.80889324E+03 E0= -.80885193E+03  d E =0.365660E-02  mag=    66.0000
       N       E                     dE             d eps       ncg     rms          ort
SDA:   1    -0.807892065852E+03    0.10012E+01    0.00000E+00  2208   0.458E+01 0.000E+00
CGA:   2    -0.808101418978E+03   -0.20935E+00   -0.20697E+00  2208   0.693E+01-0.440E-01
CGA:   3    -0.808516696176E+03   -0.41528E+00   -0.41543E+00  2208   0.250E+01-0.243E-01
CGA:   4    -0.808655259450E+03   -0.13856E+00   -0.13856E+00  2208   0.137E+01-0.163E-02
CGA:   5    -0.808748408439E+03   -0.93149E-01   -0.93375E-01  2208   0.213E+01-0.128E-01
CGA:   6    -0.808842375253E+03   -0.93967E-01   -0.94091E-01  2208   0.437E+00 0.214E-02
CGA:   7    -0.808863515273E+03   -0.21140E-01   -0.21173E-01  2208   0.165E+00 0.127E-02
CGA:   8    -0.808872679699E+03   -0.91644E-02   -0.91641E-02  2208   0.161E+00-0.949E-04
CGA:   9    -0.808880813260E+03   -0.81336E-02   -0.81364E-02  2208   0.141E+00 0.199E-03
CGA:  10    -0.808885525128E+03   -0.47119E-02   -0.47083E-02  2208   0.275E-01 0.272E-04
CGA:  11    -0.808887141813E+03   -0.16167E-02   -0.16169E-02  2208   0.154E-01-0.262E-04
CGA:  12    -0.808888377472E+03   -0.12357E-02   -0.12366E-02  2208   0.157E-01-0.318E-04
CGA:  13    -0.808889391677E+03   -0.10142E-02   -0.10136E-02  2208   0.903E-02 0.460E-04
CGA:  14    -0.808889671543E+03   -0.27987E-03   -0.27958E-03  2208   0.492E-02 0.392E-05
CGA:  15    -0.808889931720E+03   -0.26018E-03   -0.26020E-03  2208   0.276E-02 0.418E-05
CGA:  16    -0.808890261115E+03   -0.32940E-03   -0.32902E-03  2208   0.343E-02 0.560E-05
CGA:  17    -0.808890415210E+03   -0.15410E-03   -0.15410E-03  2208   0.264E-02 0.747E-06
CGA:  18    -0.808890547426E+03   -0.13222E-03   -0.13223E-03  2208   0.127E-02 0.161E-05
CGA:  19    -0.808890635479E+03   -0.88052E-04   -0.88031E-04  2208   0.135E-02 0.129E-05
CGA:  20    -0.808890731893E+03   -0.96414E-04   -0.96408E-04  2208   0.176E-02 0.552E-06
CGA:  21    -0.808890798792E+03   -0.66899E-04   -0.66936E-04  2208   0.962E-03 0.820E-06
CGA:  22    -0.808890844039E+03   -0.45247E-04   -0.45240E-04  2208   0.395E-03-0.574E-06
CGA:  23    -0.808890873607E+03   -0.29568E-04   -0.29566E-04  2208   0.423E-03-0.170E-06
CGA:  24    -0.808890911987E+03   -0.38380E-04   -0.38417E-04  2208   0.289E-03-0.135E-05
CGA:  25    -0.808890926115E+03   -0.14129E-04   -0.14124E-04  2208   0.243E-03-0.736E-06
CGA:  26    -0.808890935652E+03   -0.95369E-05   -0.95215E-05  2208   0.161E-03-0.835E-06
CGA:  27    -0.808890947057E+03   -0.11405E-04   -0.11413E-04  2208   0.150E-03-0.776E-06
CGA:  28    -0.808890957601E+03   -0.10545E-04   -0.10556E-04  2208   0.139E-03-0.107E-05
CGA:  29    -0.808890962674E+03   -0.50721E-05   -0.50641E-05  2208   0.691E-04-0.441E-06
  21 F= -.80889096E+03 E0= -.80884877E+03  d E =0.227858E-02  mag=    66.0000
       N       E                     dE             d eps       ncg     rms          ort
SDA:   1    -0.808680677419E+03    0.21028E+00    0.00000E+00  2208   0.859E+00 0.000E+00
CGA:   2    -0.808729619090E+03   -0.48942E-01   -0.48925E-01  2208   0.169E+01-0.352E-02
CGA:   3    -0.808817390574E+03   -0.87771E-01   -0.87854E-01  2208   0.434E+00 0.465E-02
CGA:   4    -0.808840745664E+03   -0.23355E-01   -0.23356E-01  2208   0.356E+00 0.114E-03
CGA:   5    -0.808866013602E+03   -0.25268E-01   -0.25273E-01  2208   0.349E+00-0.188E-03
CGA:   6    -0.808880421560E+03   -0.14408E-01   -0.14366E-01  2208   0.127E+00-0.107E-03
CGA:   7    -0.808885173744E+03   -0.47522E-02   -0.47650E-02  2208   0.347E-01-0.155E-04
CGA:   8    -0.808887659475E+03   -0.24857E-02   -0.24862E-02  2208   0.302E-01-0.172E-04
CGA:   9    -0.808889668076E+03   -0.20086E-02   -0.20086E-02  2208   0.141E-01 0.330E-05
CGA:  10    -0.808890329988E+03   -0.66191E-03   -0.66199E-03  2208   0.849E-02 0.297E-05
CGA:  11    -0.808890608821E+03   -0.27883E-03   -0.27855E-03  2208   0.421E-02 0.452E-05
CGA:  12    -0.808890847976E+03   -0.23916E-03   -0.23915E-03  2208   0.275E-02 0.606E-05
CGA:  13    -0.808891018445E+03   -0.17047E-03   -0.17047E-03  2208   0.331E-02 0.594E-07
CGA:  14    -0.808891152262E+03   -0.13382E-03   -0.13387E-03  2208   0.955E-03 0.152E-05
CGA:  15    -0.808891219185E+03   -0.66923E-04   -0.66918E-04  2208   0.547E-03 0.246E-06
CGA:  16    -0.808891269819E+03   -0.50634E-04   -0.50637E-04  2208   0.862E-03-0.224E-06
CGA:  17    -0.808891316498E+03   -0.46679E-04   -0.46676E-04  2208   0.701E-03-0.724E-06
CGA:  18    -0.808891342755E+03   -0.26257E-04   -0.26261E-04  2208   0.393E-03-0.284E-06
CGA:  19    -0.808891361954E+03   -0.19199E-04   -0.19193E-04  2208   0.246E-03-0.678E-06
CGA:  20    -0.808891383331E+03   -0.21377E-04   -0.21391E-04  2208   0.369E-03-0.518E-06
CGA:  21    -0.808891400508E+03   -0.17177E-04   -0.17178E-04  2208   0.230E-03 0.506E-07
CGA:  22    -0.808891411670E+03   -0.11162E-04   -0.11168E-04  2208   0.888E-04 0.613E-06
CGA:  23    -0.808891419209E+03   -0.75386E-05   -0.75123E-05  2208   0.832E-04 0.942E-06
  22 F= -.80889142E+03 E0= -.80884907E+03  d E =-.456535E-03  mag=    66.0000
       N       E                     dE             d eps       ncg     rms          ort
SDA:   1    -0.808785536913E+03    0.10587E+00    0.00000E+00  2208   0.713E+00 0.000E+00
CGA:   2    -0.808803491670E+03   -0.17955E-01   -0.18214E-01  2208   0.438E+00-0.626E-02
CGA:   3    -0.808855101764E+03   -0.51610E-01   -0.51659E-01  2208   0.296E+00-0.777E-03
CGA:   4    -0.808866033520E+03   -0.10932E-01   -0.10952E-01  2208   0.172E+00-0.719E-04
CGA:   5    -0.808874844032E+03   -0.88105E-02   -0.88034E-02  2208   0.132E+00-0.316E-03
CGA:   6    -0.808884211305E+03   -0.93673E-02   -0.93635E-02  2208   0.732E-01 0.215E-03
CGA:   7    -0.808886575446E+03   -0.23641E-02   -0.23547E-02  2208   0.310E-01 0.120E-03
CGA:   8    -0.808887774275E+03   -0.11988E-02   -0.12004E-02  2208   0.152E-01 0.404E-05
CGA:   9    -0.808888687792E+03   -0.91352E-03   -0.91353E-03  2208   0.117E-01-0.138E-05
CGA:  10    -0.808889365085E+03   -0.67729E-03   -0.67730E-03  2208   0.581E-02 0.750E-06
CGA:  11    -0.808889616718E+03   -0.25163E-03   -0.25152E-03  2208   0.364E-02-0.882E-06
CGA:  12    -0.808889730908E+03   -0.11419E-03   -0.11428E-03  2208   0.115E-02-0.669E-06
CGA:  13    -0.808889829077E+03   -0.98169E-04   -0.98197E-04  2208   0.160E-02-0.117E-05
CGA:  14    -0.808889903970E+03   -0.74893E-04   -0.74904E-04  2208   0.108E-02 0.503E-06
CGA:  15    -0.808889951231E+03   -0.47261E-04   -0.47251E-04  2208   0.465E-03-0.609E-06
CGA:  16    -0.808889977747E+03   -0.26516E-04   -0.26517E-04  2208   0.337E-03-0.198E-06
CGA:  17    -0.808889994766E+03   -0.17019E-04   -0.17016E-04  2208   0.480E-03-0.670E-06
CGA:  18    -0.808890029811E+03   -0.35045E-04   -0.35051E-04  2208   0.307E-03-0.544E-06
CGA:  19    -0.808890046140E+03   -0.16329E-04   -0.16328E-04  2208   0.166E-03-0.527E-06
CGA:  20    -0.808890057771E+03   -0.11631E-04   -0.11624E-04  2208   0.237E-03 0.476E-06
CGA:  21    -0.808890068233E+03   -0.10462E-04   -0.10465E-04  2208   0.180E-03 0.274E-06
CGA:  22    -0.808890079634E+03   -0.11401E-04   -0.11397E-04  2208   0.134E-03 0.406E-06
CGA:  23    -0.808890085350E+03   -0.57159E-05   -0.57151E-05  2208   0.638E-04-0.991E-07
  23 F= -.80889009E+03 E0= -.80884758E+03  d E =0.133386E-02  mag=    66.0000
