       N       E                     dE             d eps       ncg     rms          ort
DAV:   1     0.137139997176E+05    0.13714E+05   -0.62238E+05  2944   0.167E+03
DAV:   2     0.510495457427E+03   -0.13204E+05   -0.12202E+05  2944   0.464E+02
DAV:   3    -0.126452388663E+04   -0.17750E+04   -0.17406E+04  2944   0.182E+02
DAV:   4    -0.134516113302E+04   -0.80637E+02   -0.79553E+02  2944   0.386E+01
DAV:   5    -0.134975179020E+04   -0.45907E+01   -0.45659E+01  2944   0.702E+00
SDA:   6    -0.852943320048E+03    0.49681E+03   -0.45659E+01  2944   0.213E+04 0.000E+00
CGA:   7    -0.112063765061E+04   -0.26769E+03   -0.28809E+03  2944   0.420E+03 0.698E+02
CGA:   8    -0.115148659870E+04   -0.30849E+02   -0.46107E+02  2944   0.175E+03-0.278E+02
CGA:   9    -0.115972061144E+04   -0.82340E+01   -0.16625E+02  2944   0.152E+03 0.151E+01
CGA:  10    -0.116454627763E+04   -0.48257E+01   -0.12719E+02  2944   0.158E+03 0.280E+01
CGA:  11    -0.116971770024E+04   -0.51714E+01   -0.12823E+02  2944   0.776E+02-0.199E+02
CGA:  12    -0.117311258853E+04   -0.33949E+01   -0.55333E+01  2944   0.769E+02-0.270E+02
CGA:  13    -0.117793166717E+04   -0.48191E+01   -0.25275E+01  2944   0.122E+03 0.240E+01
CGA:  14    -0.117093409801E+04    0.69976E+01   -0.52606E+01  2944   0.111E+03-0.103E+03
CGA:  15    -0.117962314465E+04   -0.86890E+01   -0.71294E+01  2944   0.853E+02-0.116E+03
CGA:  16    -0.117769248481E+04    0.19307E+01   -0.47310E+01  2944   0.293E+03-0.171E+03
CGA:  17    -0.117656671237E+04    0.11258E+01   -0.19869E+02  2944   0.108E+03-0.408E+02
CGA:  18    -0.117440815513E+04    0.21586E+01   -0.54809E+01  2944   0.136E+03-0.879E+02
CGA:  19    -0.117607245738E+04   -0.16643E+01   -0.70110E+01  2944   0.994E+02-0.491E+02
CGA:  20    -0.117525241778E+04    0.82004E+00   -0.39519E+01  2944   0.209E+03-0.485E+02
CGA:  21    -0.118067925529E+04   -0.54268E+01   -0.82839E+01  2944   0.218E+02-0.109E+02
CGA:  22    -0.118218116280E+04   -0.15019E+01   -0.77317E+00  2944   0.162E+02 0.205E+02
CGA:  23    -0.118340258666E+04   -0.12214E+01   -0.42590E+00  2944   0.144E+02 0.246E+02
CGA:  24    -0.118428515444E+04   -0.88257E+00   -0.30881E+00  2944   0.733E+01 0.187E+02
CGA:  25    -0.118437905704E+04   -0.93903E-01   -0.18784E+00  2944   0.107E+02-0.477E+01
CGA:  26    -0.118446236820E+04   -0.83311E-01   -0.25064E+00  2944   0.976E+01-0.559E+01
CGA:  27    -0.118450228270E+04   -0.39915E-01   -0.24759E+00  2944   0.146E+02-0.896E+01
CGA:  28    -0.118456607185E+04   -0.63789E-01   -0.33723E+00  2944   0.138E+02-0.107E+02
CGA:  29    -0.118454865106E+04    0.17421E-01   -0.35965E+00  2944   0.210E+02-0.145E+02
CGA:  30    -0.118454873736E+04   -0.86296E-04   -0.51264E+00  2944   0.244E+02-0.203E+02
CGA:  31    -0.118441246159E+04    0.13628E+00   -0.65912E+00  2944   0.361E+02-0.264E+02
CGA:  32    -0.118427284099E+04    0.13962E+00   -0.94735E+00  2944   0.493E+02-0.405E+02
CGA:  33    -0.118386978857E+04    0.40305E+00   -0.14657E+01  2944   0.597E+02-0.434E+02
CGA:  34    -0.118383933234E+04    0.30456E-01   -0.15987E+01  2944   0.760E+02-0.725E+02
CGA:  35    -0.118344509489E+04    0.39424E+00   -0.23245E+01  2944   0.689E+02-0.552E+02
CGA:  36    -0.118405042962E+04   -0.60533E+00   -0.17555E+01  2944   0.696E+02-0.860E+02
CGA:  37    -0.118395440268E+04    0.96027E-01   -0.19376E+01  2944   0.591E+02-0.547E+02
CGA:  38    -0.118459396564E+04   -0.63956E+00   -0.13372E+01  2944   0.420E+02-0.603E+02
CGA:  39    -0.118473440852E+04   -0.14044E+00   -0.98919E+00  2944   0.289E+02-0.316E+02
CGA:  40    -0.118510355941E+04   -0.36915E+00   -0.50974E+00  2944   0.592E+01-0.135E+02
CGA:  41    -0.118519579071E+04   -0.92231E-01   -0.97631E-01  2944   0.701E+00-0.132E+00
CGA:  42    -0.118522537625E+04   -0.29586E-01   -0.29721E-01  2944   0.130E+01-0.556E-03
CGA:  43    -0.118538454706E+04   -0.15917E+00   -0.21354E+00  2944   0.244E+01-0.664E+00
CGA:  44    -0.118546189503E+04   -0.77348E-01   -0.87254E-01  2944   0.476E+00-0.126E+00
CGA:  45    -0.118548175867E+04   -0.19864E-01   -0.20391E-01  2944   0.358E+00 0.134E-02
CGA:  46    -0.118549644138E+04   -0.14683E-01   -0.14508E-01  2944   0.208E+00 0.558E-03
CGA:  47    -0.118553541091E+04   -0.38970E-01   -0.36407E-01  2944   0.204E+00 0.239E-01
CGA:  48    -0.118555771312E+04   -0.22302E-01   -0.21782E-01  2944   0.157E+00 0.146E-01
CGA:  49    -0.118557346515E+04   -0.15752E-01   -0.15888E-01  2944   0.210E+00-0.461E-02
CGA:  50    -0.118558279790E+04   -0.93328E-02   -0.99924E-02  2944   0.136E+00 0.144E-02
CGA:  51    -0.118559557680E+04   -0.12779E-01   -0.12848E-01  2944   0.629E-01-0.280E-02
CGA:  52    -0.118559897160E+04   -0.33948E-02   -0.34504E-02  2944   0.378E-01 0.713E-03
CGA:  53    -0.118560132154E+04   -0.23499E-02   -0.23351E-02  2944   0.251E-01-0.566E-03
CGA:  54    -0.118560343966E+04   -0.21181E-02   -0.21126E-02  2944   0.250E-01 0.208E-03
CGA:  55    -0.118560566845E+04   -0.22288E-02   -0.22692E-02  2944   0.287E-01-0.159E-02
CGA:  56    -0.118560712756E+04   -0.14591E-02   -0.14826E-02  2944   0.136E-01 0.191E-03
CGA:  57    -0.118560892582E+04   -0.17983E-02   -0.19067E-02  2944   0.280E-01-0.164E-02
CGA:  58    -0.118561059635E+04   -0.16705E-02   -0.16825E-02  2944   0.145E-01 0.707E-03
CGA:  59    -0.118561166547E+04   -0.10691E-02   -0.10660E-02  2944   0.107E-01-0.530E-03
CGA:  60    -0.118561228341E+04   -0.61793E-03   -0.62017E-03  2944   0.709E-02 0.220E-04
CGA:  61    -0.118561293980E+04   -0.65640E-03   -0.66058E-03  2944   0.897E-02-0.156E-03
CGA:  62    -0.118561347145E+04   -0.53164E-03   -0.53336E-03  2944   0.409E-02 0.512E-04
CGA:  63    -0.118561379076E+04   -0.31931E-03   -0.31987E-03  2944   0.283E-02-0.726E-04
CGA:  64    -0.118561399770E+04   -0.20694E-03   -0.20701E-03  2944   0.401E-02-0.820E-04
CGA:  65    -0.118561439274E+04   -0.39505E-03   -0.38253E-03  2944   0.413E-02 0.370E-03
CGA:  66    -0.118561465623E+04   -0.26348E-03   -0.24805E-03  2944   0.211E-02-0.237E-04
CGA:  67    -0.118561478037E+04   -0.12415E-03   -0.12240E-03  2944   0.152E-02-0.926E-05
CGA:  68    -0.118561486270E+04   -0.82327E-04   -0.81397E-04  2944   0.142E-02 0.210E-05
CGA:  69    -0.118561495463E+04   -0.91934E-04   -0.91516E-04  2944   0.150E-02-0.119E-04
CGA:  70    -0.118561501794E+04   -0.63308E-04   -0.61429E-04  2944   0.101E-02 0.251E-04
CGA:  71    -0.118561506266E+04   -0.44716E-04   -0.43930E-04  2944   0.856E-03 0.972E-05
CGA:  72    -0.118561510103E+04   -0.38373E-04   -0.38196E-04  2944   0.849E-03 0.470E-05
CGA:  73    -0.118561514158E+04   -0.40549E-04   -0.39926E-04  2944   0.973E-03 0.303E-05
SDA:  74    -0.118561518212E+04   -0.40538E-04   -0.38804E-04  2944   0.102E-02 0.191E-04
CGA:  75    -0.118561527990E+04   -0.97784E-04   -0.97503E-04  2944   0.185E-02 0.801E-05
CGA:  76    -0.118561540048E+04   -0.12058E-03   -0.12058E-03  2944   0.212E-02 0.103E-05
CGA:  77    -0.118561556919E+04   -0.16871E-03   -0.16843E-03  2944   0.189E-02 0.152E-04
CGA:  78    -0.118561576036E+04   -0.19117E-03   -0.18978E-03  2944   0.595E-03 0.367E-04
CGA:  79    -0.118561579846E+04   -0.38102E-04   -0.38099E-04  2944   0.174E-03-0.143E-05
CGA:  80    -0.118561581831E+04   -0.19848E-04   -0.19843E-04  2944   0.131E-03-0.141E-06
CGA:  81    -0.118561583485E+04   -0.16543E-04   -0.16647E-04  2944   0.633E-04-0.195E-05
CGA:  82    -0.118561583885E+04   -0.39967E-05   -0.39979E-05  2944   0.485E-04-0.364E-07
   1 F= -.11856158E+04 E0= -.11855981E+04  d E =-.118562E+04  mag=   118.0000
       N       E                     dE             d eps       ncg     rms          ort
SDA:   1    -0.118561743850E+04   -0.16037E-02    0.00000E+00  2944   0.376E-01 0.000E+00
CGA:   2    -0.118561823830E+04   -0.79979E-03   -0.82910E-03  2944   0.374E-02-0.102E-02
CGA:   3    -0.118561849730E+04   -0.25900E-03   -0.25900E-03  2944   0.374E-02 0.664E-05
CGA:   4    -0.118561887822E+04   -0.38092E-03   -0.38045E-03  2944   0.182E-02 0.157E-04
CGA:   5    -0.118561896303E+04   -0.84806E-04   -0.84811E-04  2944   0.118E-02 0.231E-05
CGA:   6    -0.118561902438E+04   -0.61352E-04   -0.61410E-04  2944   0.531E-03 0.113E-05
CGA:   7    -0.118561908585E+04   -0.61475E-04   -0.61857E-04  2944   0.257E-03-0.800E-05
CGA:   8    -0.118561909573E+04   -0.98800E-05   -0.98653E-05  2944   0.149E-03-0.896E-06
CGA:   9    -0.118561910688E+04   -0.11149E-04   -0.11156E-04  2944   0.755E-04-0.139E-05
CGA:  10    -0.118561911176E+04   -0.48772E-05   -0.48740E-05  2944   0.458E-04-0.702E-06
   2 F= -.11856191E+04 E0= -.11856013E+04  d E =-.327291E-02  mag=   118.0000
       N       E                     dE             d eps       ncg     rms          ort
SDA:   1    -0.118517879809E+04    0.44031E+00    0.00000E+00  2944   0.186E+01 0.000E+00
CGA:   2    -0.118529138504E+04   -0.11259E+00   -0.10947E+00  2944   0.294E+01-0.954E-01
CGA:   3    -0.118550918080E+04   -0.21780E+00   -0.21802E+00  2944   0.162E+01-0.150E-01
CGA:   4    -0.118557445088E+04   -0.65270E-01   -0.68721E-01  2944   0.524E+00-0.171E-01
CGA:   5    -0.118560676753E+04   -0.32317E-01   -0.32288E-01  2944   0.742E+00-0.203E-02
CGA:   6    -0.118564845989E+04   -0.41692E-01   -0.41768E-01  2944   0.121E+00 0.191E-02
CGA:   7    -0.118565915606E+04   -0.10696E-01   -0.10654E-01  2944   0.147E+00 0.148E-02
CGA:   8    -0.118566456805E+04   -0.54120E-02   -0.52671E-02  2944   0.448E-01 0.181E-02
CGA:   9    -0.118566810569E+04   -0.35376E-02   -0.35364E-02  2944   0.248E-01 0.513E-04
CGA:  10    -0.118566954022E+04   -0.14345E-02   -0.14383E-02  2944   0.113E-01 0.130E-03
CGA:  11    -0.118567013638E+04   -0.59616E-03   -0.59483E-03  2944   0.123E-01-0.253E-04
CGA:  12    -0.118567108284E+04   -0.94646E-03   -0.94748E-03  2944   0.415E-02-0.592E-04
CGA:  13    -0.118567148070E+04   -0.39786E-03   -0.39676E-03  2944   0.324E-02 0.320E-04
CGA:  14    -0.118567163723E+04   -0.15653E-03   -0.15613E-03  2944   0.292E-02-0.106E-05
CGA:  15    -0.118567186367E+04   -0.22644E-03   -0.22650E-03  2944   0.186E-02-0.315E-05
CGA:  16    -0.118567199353E+04   -0.12986E-03   -0.12986E-03  2944   0.946E-03 0.789E-06
CGA:  17    -0.118567208017E+04   -0.86642E-04   -0.86754E-04  2944   0.127E-02-0.431E-05
CGA:  18    -0.118567213297E+04   -0.52800E-04   -0.52824E-04  2944   0.664E-03-0.190E-05
CGA:  19    -0.118567220698E+04   -0.74011E-04   -0.74166E-04  2944   0.406E-03-0.348E-05
CGA:  20    -0.118567223559E+04   -0.28611E-04   -0.28614E-04  2944   0.344E-03-0.180E-05
CGA:  21    -0.118567225262E+04   -0.17024E-04   -0.17060E-04  2944   0.292E-03 0.144E-05
CGA:  22    -0.118567227626E+04   -0.23646E-04   -0.23616E-04  2944   0.179E-03 0.271E-05
CGA:  23    -0.118567229218E+04   -0.15915E-04   -0.15896E-04  2944   0.124E-03 0.101E-05
CGA:  24    -0.118567229951E+04   -0.73363E-05   -0.73575E-05  2944   0.142E-03 0.173E-05
   3 F= -.11856723E+04 E0= -.11856548E+04  d E =-.531878E-01  mag=   118.0000
       N       E                     dE             d eps       ncg     rms          ort
SDA:   1    -0.118402872802E+04    0.16436E+01    0.00000E+00  2944   0.528E+01 0.000E+00
CGA:   2    -0.118470734375E+04   -0.67862E+00   -0.71219E+00  2944   0.176E+02-0.473E+00
CGA:   3    -0.118524083735E+04   -0.53349E+00   -0.57450E+00  2944   0.220E+01-0.635E+00
CGA:   4    -0.118543006578E+04   -0.18923E+00   -0.18675E+00  2944   0.361E+01 0.996E-01
CGA:   5    -0.118560751972E+04   -0.17745E+00   -0.16800E+00  2944   0.888E+00 0.394E-01
CGA:   6    -0.118565980716E+04   -0.52287E-01   -0.52410E-01  2944   0.429E+00 0.304E-02
CGA:   7    -0.118570511897E+04   -0.45312E-01   -0.45377E-01  2944   0.237E+00-0.150E-02
CGA:   8    -0.118571393196E+04   -0.88130E-02   -0.86247E-02  2944   0.977E-01 0.246E-02
CGA:   9    -0.118571978824E+04   -0.58563E-02   -0.58760E-02  2944   0.635E-01 0.629E-03
CGA:  10    -0.118572604155E+04   -0.62533E-02   -0.62718E-02  2944   0.258E-01-0.515E-03
CGA:  11    -0.118572812161E+04   -0.20801E-02   -0.20779E-02  2944   0.173E-01 0.134E-03
CGA:  12    -0.118572919671E+04   -0.10751E-02   -0.10769E-02  2944   0.208E-01 0.810E-04
CGA:  13    -0.118573053500E+04   -0.13383E-02   -0.13379E-02  2944   0.711E-02-0.121E-04
CGA:  14    -0.118573114372E+04   -0.60872E-03   -0.60818E-03  2944   0.591E-02 0.284E-04
CGA:  15    -0.118573179844E+04   -0.65472E-03   -0.65616E-03  2944   0.339E-02-0.315E-04
CGA:  16    -0.118573218914E+04   -0.39070E-03   -0.39021E-03  2944   0.476E-02 0.101E-04
CGA:  17    -0.118573240587E+04   -0.21673E-03   -0.21766E-03  2944   0.274E-02-0.405E-05
CGA:  18    -0.118573259930E+04   -0.19344E-03   -0.19339E-03  2944   0.154E-02-0.904E-05
CGA:  19    -0.118573277109E+04   -0.17178E-03   -0.17168E-03  2944   0.124E-02 0.282E-05
CGA:  20    -0.118573288890E+04   -0.11781E-03   -0.11783E-03  2944   0.615E-03-0.648E-06
CGA:  21    -0.118573294757E+04   -0.58673E-04   -0.58567E-04  2944   0.686E-03 0.521E-05
CGA:  22    -0.118573299903E+04   -0.51464E-04   -0.51466E-04  2944   0.840E-03 0.132E-05
CGA:  23    -0.118573304106E+04   -0.42027E-04   -0.42079E-04  2944   0.254E-03 0.240E-05
CGA:  24    -0.118573307374E+04   -0.32681E-04   -0.32493E-04  2944   0.230E-03 0.361E-05
CGA:  25    -0.118573309984E+04   -0.26098E-04   -0.26086E-04  2944   0.206E-03 0.408E-06
CGA:  26    -0.118573311602E+04   -0.16183E-04   -0.16185E-04  2944   0.837E-04 0.123E-05
CGA:  27    -0.118573312285E+04   -0.68334E-05   -0.68327E-05  2944   0.147E-03 0.502E-06
   4 F= -.11857331E+04 E0= -.11857158E+04  d E =-.608233E-01  mag=   118.0000
       N       E                     dE             d eps       ncg     rms          ort
SDA:   1    -0.118301770475E+04    0.27154E+01    0.00000E+00  2944   0.838E+01 0.000E+00
CGA:   2    -0.118474942530E+04   -0.17317E+01   -0.17234E+01  2944   0.764E+01 0.737E-01
CGA:   3    -0.118504938056E+04   -0.29996E+00   -0.34311E+00  2944   0.470E+01-0.403E+00
CGA:   4    -0.118542394668E+04   -0.37457E+00   -0.37546E+00  2944   0.430E+01-0.581E+00
CGA:   5    -0.118562215864E+04   -0.19821E+00   -0.20505E+00  2944   0.795E+00-0.185E-01
CGA:   6    -0.118570943483E+04   -0.87276E-01   -0.88489E-01  2944   0.914E+00-0.313E-01
CGA:   7    -0.118574207503E+04   -0.32640E-01   -0.34957E-01  2944   0.301E+00-0.311E-01
CGA:   8    -0.118575673465E+04   -0.14660E-01   -0.14122E-01  2944   0.107E+00 0.295E-02
CGA:   9    -0.118576749360E+04   -0.10759E-01   -0.10813E-01  2944   0.779E-01-0.190E-02
CGA:  10    -0.118577311078E+04   -0.56172E-02   -0.56193E-02  2944   0.693E-01 0.122E-03
CGA:  11    -0.118577597052E+04   -0.28597E-02   -0.29040E-02  2944   0.209E-01-0.448E-03
CGA:  12    -0.118577805458E+04   -0.20841E-02   -0.20865E-02  2944   0.236E-01-0.764E-04
CGA:  13    -0.118577968200E+04   -0.16274E-02   -0.16305E-02  2944   0.157E-01 0.117E-03
CGA:  14    -0.118578052952E+04   -0.84751E-03   -0.84714E-03  2944   0.107E-01 0.773E-05
CGA:  15    -0.118578136445E+04   -0.83494E-03   -0.83489E-03  2944   0.593E-02 0.539E-04
CGA:  16    -0.118578203851E+04   -0.67406E-03   -0.67542E-03  2944   0.105E-01-0.303E-04
CGA:  17    -0.118578254034E+04   -0.50183E-03   -0.50397E-03  2944   0.411E-02-0.644E-06
CGA:  18    -0.118578288006E+04   -0.33972E-03   -0.33977E-03  2944   0.292E-02-0.468E-05
CGA:  19    -0.118578311218E+04   -0.23212E-03   -0.23207E-03  2944   0.288E-02 0.211E-04
CGA:  20    -0.118578328362E+04   -0.17144E-03   -0.17123E-03  2944   0.228E-02-0.522E-07
CGA:  21    -0.118578346801E+04   -0.18440E-03   -0.18441E-03  2944   0.941E-03 0.174E-06
CGA:  22    -0.118578353842E+04   -0.70411E-04   -0.70412E-04  2944   0.112E-02 0.115E-05
CGA:  23    -0.118578361232E+04   -0.73900E-04   -0.73971E-04  2944   0.825E-03 0.376E-05
CGA:  24    -0.118578368229E+04   -0.69969E-04   -0.69991E-04  2944   0.583E-03-0.236E-05
CGA:  25    -0.118578371894E+04   -0.36650E-04   -0.36667E-04  2944   0.372E-03 0.484E-06
CGA:  26    -0.118578374328E+04   -0.24336E-04   -0.24322E-04  2944   0.385E-03-0.915E-06
CGA:  27    -0.118578377519E+04   -0.31910E-04   -0.31916E-04  2944   0.192E-03-0.774E-06
CGA:  28    -0.118578379226E+04   -0.17068E-04   -0.17088E-04  2944   0.231E-03-0.147E-05
CGA:  29    -0.118578380241E+04   -0.10151E-04   -0.10137E-04  2944   0.685E-04-0.533E-06
CGA:  30    -0.118578380933E+04   -0.69198E-05   -0.69518E-05  2944   0.920E-04-0.119E-05
   5 F= -.11857838E+04 E0= -.11857666E+04  d E =-.506865E-01  mag=   118.0000
       N       E                     dE             d eps       ncg     rms          ort
SDA:   1    -0.117864542030E+04    0.71384E+01    0.00000E+00  2944   0.221E+02 0.000E+00
CGA:   2    -0.118320459986E+04   -0.45592E+01   -0.43401E+01  2944   0.104E+02 0.172E+01
CGA:   3    -0.118410145498E+04   -0.89686E+00   -0.77953E+00  2944   0.154E+02-0.275E+01
CGA:   4    -0.118457668241E+04   -0.47523E+00   -0.44036E+00  2944   0.217E+02 0.394E+00
CGA:   5    -0.118510514360E+04   -0.52846E+00   -0.66314E+00  2944   0.974E+01-0.353E+01
CGA:   6    -0.118536324241E+04   -0.25810E+00   -0.29765E+00  2944   0.350E+01-0.695E+00
CGA:   7    -0.118546743753E+04   -0.10420E+00   -0.81598E-01  2944   0.193E+01 0.686E+00
CGA:   8    -0.118558352486E+04   -0.11609E+00   -0.11318E+00  2944   0.328E+01-0.829E-02
CGA:   9    -0.118565834030E+04   -0.74815E-01   -0.74395E-01  2944   0.157E+01 0.404E-02
CGA:  10    -0.118568954859E+04   -0.31208E-01   -0.37682E-01  2944   0.947E+00-0.202E+00
CGA:  11    -0.118571053901E+04   -0.20990E-01   -0.21649E-01  2944   0.513E+00-0.179E-01
CGA:  12    -0.118572351374E+04   -0.12975E-01   -0.12646E-01  2944   0.379E+00 0.927E-02
CGA:  13    -0.118574061651E+04   -0.17103E-01   -0.16687E-01  2944   0.620E+00-0.851E-03
CGA:  14    -0.118575689881E+04   -0.16282E-01   -0.16490E-01  2944   0.324E+00-0.515E-02
CGA:  15    -0.118576395646E+04   -0.70577E-02   -0.74484E-02  2944   0.215E+00-0.115E-01
CGA:  16    -0.118577098451E+04   -0.70280E-02   -0.71747E-02  2944   0.158E+00-0.995E-03
CGA:  17    -0.118577458512E+04   -0.36006E-02   -0.35253E-02  2944   0.742E-01 0.230E-02
CGA:  18    -0.118577745799E+04   -0.28729E-02   -0.28527E-02  2944   0.103E+00-0.409E-04
CGA:  19    -0.118578088212E+04   -0.34241E-02   -0.34299E-02  2944   0.817E-01-0.163E-04
CGA:  20    -0.118578330668E+04   -0.24246E-02   -0.24663E-02  2944   0.781E-01-0.452E-03
CGA:  21    -0.118578609561E+04   -0.27889E-02   -0.28007E-02  2944   0.567E-01 0.705E-04
CGA:  22    -0.118578738433E+04   -0.12887E-02   -0.12718E-02  2944   0.253E-01 0.481E-03
CGA:  23    -0.118578832459E+04   -0.94026E-03   -0.93356E-03  2944   0.320E-01-0.699E-04
CGA:  24    -0.118578934007E+04   -0.10155E-02   -0.10079E-02  2944   0.232E-01 0.247E-04
CGA:  25    -0.118579000339E+04   -0.66332E-03   -0.66569E-03  2944   0.229E-01-0.153E-04
CGA:  26    -0.118579091986E+04   -0.91648E-03   -0.91808E-03  2944   0.246E-01 0.762E-04
CGA:  27    -0.118579155031E+04   -0.63044E-03   -0.62975E-03  2944   0.149E-01 0.122E-04
CGA:  28    -0.118579208546E+04   -0.53515E-03   -0.53417E-03  2944   0.160E-01-0.252E-04
CGA:  29    -0.118579249926E+04   -0.41381E-03   -0.41288E-03  2944   0.696E-02 0.108E-04
CGA:  30    -0.118579268213E+04   -0.18287E-03   -0.18384E-03  2944   0.613E-02-0.427E-05
CGA:  31    -0.118579301016E+04   -0.32803E-03   -0.32749E-03  2944   0.108E-01 0.417E-04
SDA:  32    -0.118579334435E+04   -0.33419E-03   -0.33400E-03  2944   0.752E-02 0.523E-05
CGA:  33    -0.118579365315E+04   -0.30880E-03   -0.30858E-03  2944   0.157E-02-0.435E-04
CGA:  34    -0.118579391581E+04   -0.26266E-03   -0.26115E-03  2944   0.193E-02 0.135E-04
CGA:  35    -0.118579413491E+04   -0.21910E-03   -0.21995E-03  2944   0.306E-02-0.140E-04
CGA:  36    -0.118579427093E+04   -0.13602E-03   -0.13610E-03  2944   0.137E-02 0.359E-05
CGA:  37    -0.118579436825E+04   -0.97316E-04   -0.97226E-04  2944   0.609E-03 0.380E-05
CGA:  38    -0.118579445073E+04   -0.82476E-04   -0.82498E-04  2944   0.586E-03-0.413E-06
CGA:  39    -0.118579455465E+04   -0.10392E-03   -0.10392E-03  2944   0.132E-02-0.834E-07
CGA:  40    -0.118579460089E+04   -0.46245E-04   -0.46092E-04  2944   0.313E-03-0.556E-06
CGA:  41    -0.118579463395E+04   -0.33060E-04   -0.33107E-04  2944   0.317E-03-0.101E-05
CGA:  42    -0.118579466212E+04   -0.28169E-04   -0.28119E-04  2944   0.249E-03 0.189E-05
CGA:  43    -0.118579469067E+04   -0.28546E-04   -0.28601E-04  2944   0.121E-03-0.112E-05
CGA:  44    -0.118579469708E+04   -0.64131E-05   -0.64213E-05  2944   0.143E-03 0.453E-06
CGA:  45    -0.118579471179E+04   -0.14713E-04   -0.14701E-04  2944   0.870E-04 0.377E-06
CGA:  46    -0.118579472378E+04   -0.11992E-04   -0.11973E-04  2944   0.496E-04 0.262E-06
CGA:  47    -0.118579472834E+04   -0.45577E-05   -0.45393E-05  2944   0.452E-04 0.946E-06
   6 F= -.11857947E+04 E0= -.11857777E+04  d E =-.109190E-01  mag=   118.0000
       N       E                     dE             d eps       ncg     rms          ort
SDA:   1    -0.118517272887E+04    0.62199E+00    0.00000E+00  2944   0.202E+01 0.000E+00
CGA:   2    -0.118537375558E+04   -0.20103E+00   -0.19189E+00  2944   0.332E+01 0.296E+00
CGA:   3    -0.118563462472E+04   -0.26087E+00   -0.25691E+00  2944   0.199E+01-0.263E+00
CGA:   4    -0.118572310940E+04   -0.88485E-01   -0.90263E-01  2944   0.589E+00-0.305E-03
CGA:   5    -0.118578075034E+04   -0.57641E-01   -0.57433E-01  2944   0.485E+00 0.630E-02
CGA:   6    -0.118580276688E+04   -0.22017E-01   -0.22380E-01  2944   0.214E+00-0.136E-02
CGA:   7    -0.118581418583E+04   -0.11419E-01   -0.11203E-01  2944   0.907E-01-0.141E-02
CGA:   8    -0.118582166982E+04   -0.74840E-02   -0.74623E-02  2944   0.509E-01 0.119E-02
CGA:   9    -0.118582458674E+04   -0.29169E-02   -0.29014E-02  2944   0.336E-01-0.252E-03
CGA:  10    -0.118582613771E+04   -0.15510E-02   -0.15583E-02  2944   0.113E-01-0.161E-04
CGA:  11    -0.118582721841E+04   -0.10807E-02   -0.10802E-02  2944   0.107E-01 0.123E-04
CGA:  12    -0.118582791090E+04   -0.69250E-03   -0.69251E-03  2944   0.652E-02-0.230E-05
CGA:  13    -0.118582820310E+04   -0.29219E-03   -0.29084E-03  2944   0.326E-02-0.753E-06
CGA:  14    -0.118582856585E+04   -0.36275E-03   -0.36155E-03  2944   0.241E-02 0.263E-04
CGA:  15    -0.118582871916E+04   -0.15331E-03   -0.15322E-03  2944   0.183E-02-0.344E-05
CGA:  16    -0.118582882360E+04   -0.10444E-03   -0.10456E-03  2944   0.133E-02 0.609E-05
CGA:  17    -0.118582892267E+04   -0.99065E-04   -0.99042E-04  2944   0.707E-03 0.566E-05
CGA:  18    -0.118582898844E+04   -0.65772E-04   -0.65776E-04  2944   0.667E-03 0.974E-07
CGA:  19    -0.118582902097E+04   -0.32524E-04   -0.32470E-04  2944   0.412E-03-0.118E-05
CGA:  20    -0.118582905300E+04   -0.32033E-04   -0.32031E-04  2944   0.280E-03-0.117E-06
CGA:  21    -0.118582907535E+04   -0.22354E-04   -0.22389E-04  2944   0.181E-03-0.364E-05
CGA:  22    -0.118582908718E+04   -0.11829E-04   -0.11827E-04  2944   0.209E-03-0.475E-06
CGA:  23    -0.118582910114E+04   -0.13959E-04   -0.13956E-04  2944   0.960E-04-0.717E-06
CGA:  24    -0.118582910949E+04   -0.83551E-05   -0.83499E-05  2944   0.937E-04 0.312E-06
   7 F= -.11858291E+04 E0= -.11858119E+04  d E =-.343812E-01  mag=   118.0000
       N       E                     dE             d eps       ncg     rms          ort
SDA:   1    -0.118569694591E+04    0.13216E+00    0.00000E+00  2944   0.580E+00 0.000E+00
CGA:   2    -0.118572516456E+04   -0.28219E-01   -0.27239E-01  2944   0.689E+00 0.969E-03
CGA:   3    -0.118579863846E+04   -0.73474E-01   -0.73464E-01  2944   0.147E+00 0.241E-03
CGA:   4    -0.118582207518E+04   -0.23437E-01   -0.23284E-01  2944   0.172E+00 0.183E-02
CGA:   5    -0.118582753517E+04   -0.54600E-02   -0.52627E-02  2944   0.474E-01 0.432E-02
CGA:   6    -0.118583191106E+04   -0.43759E-02   -0.43821E-02  2944   0.378E-01-0.261E-03
CGA:   7    -0.118583429489E+04   -0.23838E-02   -0.23870E-02  2944   0.107E-01 0.105E-03
CGA:   8    -0.118583489267E+04   -0.59778E-03   -0.59635E-03  2944   0.844E-02-0.952E-05
CGA:   9    -0.118583530452E+04   -0.41185E-03   -0.41134E-03  2944   0.461E-02 0.603E-05
CGA:  10    -0.118583563513E+04   -0.33061E-03   -0.33059E-03  2944   0.192E-02-0.420E-05
CGA:  11    -0.118583582426E+04   -0.18913E-03   -0.18937E-03  2944   0.118E-02-0.687E-05
CGA:  12    -0.118583589120E+04   -0.66939E-04   -0.66971E-04  2944   0.137E-02 0.335E-06
CGA:  13    -0.118583597518E+04   -0.83980E-04   -0.83957E-04  2944   0.410E-03-0.231E-05
CGA:  14    -0.118583603676E+04   -0.61579E-04   -0.61590E-04  2944   0.282E-03-0.151E-06
CGA:  15    -0.118583605507E+04   -0.18318E-04   -0.18343E-04  2944   0.321E-03 0.178E-05
CGA:  16    -0.118583607547E+04   -0.20401E-04   -0.20408E-04  2944   0.257E-03 0.760E-06
CGA:  17    -0.118583609215E+04   -0.16674E-04   -0.16683E-04  2944   0.121E-03 0.730E-06
CGA:  18    -0.118583610402E+04   -0.11869E-04   -0.11840E-04  2944   0.720E-04 0.127E-05
CGA:  19    -0.118583611122E+04   -0.72023E-05   -0.72092E-05  2944   0.796E-04-0.294E-06
   8 F= -.11858361E+04 E0= -.11858188E+04  d E =-.700173E-02  mag=   118.0000
       N       E                     dE             d eps       ncg     rms          ort
SDA:   1    -0.118547578684E+04    0.36032E+00    0.00000E+00  2944   0.208E+01 0.000E+00
CGA:   2    -0.118554964577E+04   -0.73859E-01   -0.84402E-01  2944   0.168E+01-0.110E+00
CGA:   3    -0.118573540190E+04   -0.18576E+00   -0.18906E+00  2944   0.780E+00-0.657E-01
CGA:   4    -0.118577425817E+04   -0.38856E-01   -0.40472E-01  2944   0.505E+00 0.649E-02
CGA:   5    -0.118580851419E+04   -0.34256E-01   -0.34138E-01  2944   0.430E+00-0.528E-02
CGA:   6    -0.118582932382E+04   -0.20810E-01   -0.21241E-01  2944   0.111E+00 0.992E-04
CGA:   7    -0.118583659874E+04   -0.72749E-02   -0.72484E-02  2944   0.752E-01-0.121E-02
CGA:   8    -0.118584061382E+04   -0.40151E-02   -0.40313E-02  2944   0.457E-01 0.149E-03
CGA:   9    -0.118584314600E+04   -0.25322E-02   -0.25361E-02  2944   0.162E-01 0.528E-04
CGA:  10    -0.118584420800E+04   -0.10620E-02   -0.10641E-02  2944   0.873E-02 0.144E-03
CGA:  11    -0.118584465092E+04   -0.44292E-03   -0.44142E-03  2944   0.658E-02-0.111E-04
CGA:  12    -0.118584523437E+04   -0.58346E-03   -0.58265E-03  2944   0.323E-02 0.298E-04
CGA:  13    -0.118584543775E+04   -0.20337E-03   -0.20321E-03  2944   0.279E-02-0.983E-05
CGA:  14    -0.118584558891E+04   -0.15117E-03   -0.15135E-03  2944   0.145E-02 0.309E-05
CGA:  15    -0.118584573161E+04   -0.14270E-03   -0.14263E-03  2944   0.160E-02 0.240E-05
CGA:  16    -0.118584582954E+04   -0.97927E-04   -0.97961E-04  2944   0.975E-03 0.311E-05
CGA:  17    -0.118584588624E+04   -0.56704E-04   -0.56690E-04  2944   0.781E-03 0.650E-06
CGA:  18    -0.118584595372E+04   -0.67481E-04   -0.67358E-04  2944   0.465E-03 0.684E-05
CGA:  19    -0.118584599290E+04   -0.39180E-04   -0.39197E-04  2944   0.716E-03-0.102E-05
CGA:  20    -0.118584603189E+04   -0.38992E-04   -0.38993E-04  2944   0.193E-03-0.242E-07
CGA:  21    -0.118584605130E+04   -0.19406E-04   -0.19407E-04  2944   0.253E-03-0.114E-06
CGA:  22    -0.118584606497E+04   -0.13666E-04   -0.13667E-04  2944   0.161E-03-0.137E-06
CGA:  23    -0.118584607641E+04   -0.11447E-04   -0.11446E-04  2944   0.106E-03-0.146E-05
CGA:  24    -0.118584608342E+04   -0.70084E-05   -0.70099E-05  2944   0.629E-04 0.276E-06
   9 F= -.11858461E+04 E0= -.11858286E+04  d E =-.997220E-02  mag=   118.0000
       N       E                     dE             d eps       ncg     rms          ort
SDA:   1    -0.118439706544E+04    0.14490E+01    0.00000E+00  2944   0.453E+01 0.000E+00
CGA:   2    -0.118516691953E+04   -0.76985E+00   -0.74999E+00  2944   0.507E+01 0.226E+00
CGA:   3    -0.118548046212E+04   -0.31354E+00   -0.29205E+00  2944   0.202E+01-0.141E+00
CGA:   4    -0.118563313391E+04   -0.15267E+00   -0.15217E+00  2944   0.265E+01 0.101E+00
CGA:   5    -0.118577110308E+04   -0.13797E+00   -0.13752E+00  2944   0.486E+00-0.154E-02
CGA:   6    -0.118581198257E+04   -0.40879E-01   -0.41006E-01  2944   0.482E+00-0.728E-02
CGA:   7    -0.118583320207E+04   -0.21220E-01   -0.20586E-01  2944   0.209E+00 0.414E-02
CGA:   8    -0.118584580080E+04   -0.12599E-01   -0.12673E-01  2944   0.664E-01 0.176E-02
CGA:   9    -0.118585021062E+04   -0.44098E-02   -0.44010E-02  2944   0.513E-01-0.571E-03
CGA:  10    -0.118585319994E+04   -0.29893E-02   -0.29963E-02  2944   0.407E-01 0.149E-03
CGA:  11    -0.118585546274E+04   -0.22628E-02   -0.22518E-02  2944   0.135E-01-0.154E-03
CGA:  12    -0.118585658921E+04   -0.11265E-02   -0.11261E-02  2944   0.131E-01 0.168E-04
CGA:  13    -0.118585730801E+04   -0.71880E-03   -0.71728E-03  2944   0.101E-01-0.187E-04
CGA:  14    -0.118585797083E+04   -0.66282E-03   -0.66308E-03  2944   0.526E-02 0.314E-04
CGA:  15    -0.118585844272E+04   -0.47189E-03   -0.47242E-03  2944   0.494E-02-0.179E-04
CGA:  16    -0.118585870161E+04   -0.25889E-03   -0.25953E-03  2944   0.422E-02 0.135E-04
CGA:  17    -0.118585906700E+04   -0.36539E-03   -0.36521E-03  2944   0.264E-02 0.114E-04
CGA:  18    -0.118585924934E+04   -0.18234E-03   -0.18235E-03  2944   0.222E-02 0.452E-05
CGA:  19    -0.118585939848E+04   -0.14914E-03   -0.14910E-03  2944   0.215E-02-0.541E-05
CGA:  20    -0.118585951690E+04   -0.11842E-03   -0.11851E-03  2944   0.859E-03 0.191E-05
CGA:  21    -0.118585961525E+04   -0.98348E-04   -0.98558E-04  2944   0.108E-02-0.452E-05
CGA:  22    -0.118585965936E+04   -0.44116E-04   -0.44184E-04  2944   0.487E-03-0.222E-06
CGA:  23    -0.118585970247E+04   -0.43108E-04   -0.43126E-04  2944   0.436E-03-0.657E-06
CGA:  24    -0.118585973738E+04   -0.34911E-04   -0.34905E-04  2944   0.381E-03 0.609E-06
CGA:  25    -0.118585975650E+04   -0.19114E-04   -0.19107E-04  2944   0.236E-03 0.146E-06
CGA:  26    -0.118585977304E+04   -0.16543E-04   -0.16545E-04  2944   0.164E-03 0.164E-05
CGA:  27    -0.118585979046E+04   -0.17419E-04   -0.17461E-04  2944   0.181E-03-0.120E-05
CGA:  28    -0.118585979813E+04   -0.76709E-05   -0.76670E-05  2944   0.864E-04-0.242E-06
  10 F= -.11858598E+04 E0= -.11858420E+04  d E =-.137147E-01  mag=   118.0000
       N       E                     dE             d eps       ncg     rms          ort
SDA:   1    -0.117766954833E+04    0.81902E+01    0.00000E+00  2944   0.232E+02 0.000E+00
CGA:   2    -0.118006161165E+04   -0.23921E+01   -0.22290E+01  2944   0.327E+02 0.470E+01
CGA:   3    -0.118291047449E+04   -0.28489E+01   -0.28423E+01  2944   0.402E+02-0.106E+02
CGA:   4    -0.118409413880E+04   -0.11837E+01   -0.12337E+01  2944   0.101E+02-0.210E+00
CGA:   5    -0.118438137339E+04   -0.28723E+00   -0.32769E+00  2944   0.582E+01-0.691E+00
CGA:   6    -0.118477560306E+04   -0.39423E+00   -0.39788E+00  2944   0.555E+01-0.475E+00
CGA:   7    -0.118506012835E+04   -0.28453E+00   -0.28460E+00  2944   0.252E+01-0.489E-02
CGA:   8    -0.118512135783E+04   -0.61229E-01   -0.75105E-01  2944   0.987E+00-0.289E+00
CGA:   9    -0.118519419155E+04   -0.72834E-01   -0.73193E-01  2944   0.616E+00-0.149E-01
CGA:  10    -0.118524377132E+04   -0.49580E-01   -0.49405E-01  2944   0.172E+00 0.842E-02
CGA:  11    -0.118526436310E+04   -0.20592E-01   -0.20257E-01  2944   0.124E+00 0.608E-02
CGA:  12    -0.118527652553E+04   -0.12162E-01   -0.12049E-01  2944   0.141E+00 0.369E-02
CGA:  13    -0.118528234313E+04   -0.58176E-02   -0.57910E-02  2944   0.517E-01 0.298E-03
CGA:  14    -0.118528605010E+04   -0.37070E-02   -0.37058E-02  2944   0.370E-01 0.508E-03
CGA:  15    -0.118528964993E+04   -0.35998E-02   -0.35777E-02  2944   0.142E-01 0.670E-03
CGA:  16    -0.118529125218E+04   -0.16023E-02   -0.16012E-02  2944   0.192E-01 0.229E-04
CGA:  17    -0.118529202704E+04   -0.77486E-03   -0.77124E-03  2944   0.781E-02 0.386E-04
CGA:  18    -0.118529276096E+04   -0.73392E-03   -0.73237E-03  2944   0.522E-02 0.533E-04
CGA:  19    -0.118529320918E+04   -0.44822E-03   -0.44860E-03  2944   0.345E-02-0.231E-04
CGA:  20    -0.118529351230E+04   -0.30312E-03   -0.30285E-03  2944   0.305E-02 0.121E-04
CGA:  21    -0.118529364175E+04   -0.12945E-03   -0.12917E-03  2944   0.164E-02 0.643E-06
CGA:  22    -0.118529386072E+04   -0.21897E-03   -0.21861E-03  2944   0.118E-02 0.576E-05
CGA:  23    -0.118529396420E+04   -0.10348E-03   -0.10347E-03  2944   0.981E-03 0.193E-05
CGA:  24    -0.118529403168E+04   -0.67479E-04   -0.67507E-04  2944   0.115E-02 0.315E-05
CGA:  25    -0.118529410883E+04   -0.77148E-04   -0.77148E-04  2944   0.695E-03 0.117E-05
CGA:  26    -0.118529417090E+04   -0.62065E-04   -0.62002E-04  2944   0.398E-03 0.408E-05
CGA:  27    -0.118529421673E+04   -0.45834E-04   -0.45986E-04  2944   0.415E-03-0.383E-05
CGA:  28    -0.118529423890E+04   -0.22166E-04   -0.22147E-04  2944   0.370E-03-0.127E-05
CGA:  29    -0.118529426468E+04   -0.25780E-04   -0.25759E-04  2944   0.142E-03-0.271E-05
CGA:  30    -0.118529428044E+04   -0.15766E-04   -0.15853E-04  2944   0.142E-03-0.239E-05
CGA:  31    -0.118529429148E+04   -0.11036E-04   -0.11037E-04  2944   0.787E-04-0.107E-05
SDA:  32    -0.118529429530E+04   -0.38210E-05   -0.38216E-05  2944   0.636E-04-0.428E-07
  11 F= -.11852943E+04 E0= -.11852767E+04  d E =0.565503E+00  mag=   118.0000
       N       E                     dE             d eps       ncg     rms          ort
SDA:   1    -0.118432668604E+04    0.96761E+00    0.00000E+00  2944   0.440E+01 0.000E+00
CGA:   2    -0.118461604616E+04   -0.28936E+00   -0.28502E+00  2944   0.856E+01-0.156E+00
CGA:   3    -0.118534474438E+04   -0.72870E+00   -0.72860E+00  2944   0.378E+01 0.159E-02
CGA:   4    -0.118556479990E+04   -0.22006E+00   -0.21530E+00  2944   0.924E+00-0.437E-01
CGA:   5    -0.118560658959E+04   -0.41790E-01   -0.40236E-01  2944   0.872E+00 0.931E-02
CGA:   6    -0.118567189893E+04   -0.65309E-01   -0.65248E-01  2944   0.493E+00 0.216E-01
CGA:   7    -0.118570143450E+04   -0.29536E-01   -0.29762E-01  2944   0.315E+00 0.440E-02
CGA:   8    -0.118571179153E+04   -0.10357E-01   -0.99795E-02  2944   0.952E-01 0.734E-02
CGA:   9    -0.118571867254E+04   -0.68810E-02   -0.68787E-02  2944   0.628E-01 0.171E-02
CGA:  10    -0.118572338347E+04   -0.47109E-02   -0.47141E-02  2944   0.715E-01-0.450E-03
CGA:  11    -0.118572595902E+04   -0.25755E-02   -0.25378E-02  2944   0.243E-01 0.501E-03
CGA:  12    -0.118572789639E+04   -0.19374E-02   -0.19289E-02  2944   0.198E-01 0.515E-03
CGA:  13    -0.118572872286E+04   -0.82647E-03   -0.83345E-03  2944   0.151E-01-0.349E-04
CGA:  14    -0.118572975397E+04   -0.10311E-02   -0.10312E-02  2944   0.973E-02-0.798E-04
CGA:  15    -0.118573043137E+04   -0.67740E-03   -0.67729E-03  2944   0.743E-02 0.270E-04
CGA:  16    -0.118573067855E+04   -0.24718E-03   -0.24781E-03  2944   0.300E-02-0.478E-05
CGA:  17    -0.118573093477E+04   -0.25622E-03   -0.25657E-03  2944   0.260E-02-0.138E-04
CGA:  18    -0.118573111914E+04   -0.18437E-03   -0.18434E-03  2944   0.331E-02 0.651E-05
CGA:  19    -0.118573124954E+04   -0.13040E-03   -0.13090E-03  2944   0.981E-03 0.410E-05
CGA:  20    -0.118573131933E+04   -0.69787E-04   -0.69810E-04  2944   0.575E-03-0.198E-05
CGA:  21    -0.118573135042E+04   -0.31095E-04   -0.31104E-04  2944   0.646E-03 0.808E-06
CGA:  22    -0.118573138726E+04   -0.36841E-04   -0.36879E-04  2944   0.314E-03 0.378E-05
CGA:  23    -0.118573141107E+04   -0.23805E-04   -0.23795E-04  2944   0.220E-03 0.982E-06
CGA:  24    -0.118573142075E+04   -0.96871E-05   -0.96905E-05  2944   0.179E-03 0.192E-06
CGA:  25    -0.118573143241E+04   -0.11654E-04   -0.11653E-04  2944   0.832E-04 0.137E-05
CGA:  26    -0.118573143924E+04   -0.68283E-05   -0.68258E-05  2944   0.111E-03 0.123E-06
  12 F= -.11857314E+04 E0= -.11857136E+04  d E =-.437144E+00  mag=   118.0000
       N       E                     dE             d eps       ncg     rms          ort
SDA:   1    -0.118531259644E+04    0.41884E+00    0.00000E+00  2944   0.187E+01 0.000E+00
CGA:   2    -0.118540783865E+04   -0.95242E-01   -0.92618E-01  2944   0.270E+01-0.389E-01
CGA:   3    -0.118571619643E+04   -0.30836E+00   -0.31206E+00  2944   0.143E+01-0.699E-01
CGA:   4    -0.118578241258E+04   -0.66216E-01   -0.67874E-01  2944   0.640E+00 0.130E-01
CGA:   5    -0.118580427911E+04   -0.21867E-01   -0.21465E-01  2944   0.223E+00 0.663E-02
CGA:   6    -0.118583264883E+04   -0.28370E-01   -0.27939E-01  2944   0.180E+00 0.697E-02
CGA:   7    -0.118584406373E+04   -0.11415E-01   -0.11410E-01  2944   0.541E-01-0.325E-03
CGA:   8    -0.118584834912E+04   -0.42854E-02   -0.42609E-02  2944   0.237E-01 0.133E-02
CGA:   9    -0.118584994935E+04   -0.16002E-02   -0.16004E-02  2944   0.329E-01 0.861E-04
CGA:  10    -0.118585169640E+04   -0.17470E-02   -0.17430E-02  2944   0.929E-02-0.629E-04
CGA:  11    -0.118585252493E+04   -0.82853E-03   -0.82367E-03  2944   0.589E-02 0.164E-03
CGA:  12    -0.118585306125E+04   -0.53631E-03   -0.53606E-03  2944   0.430E-02 0.817E-05
CGA:  13    -0.118585342446E+04   -0.36322E-03   -0.36281E-03  2944   0.402E-02 0.192E-04
CGA:  14    -0.118585357793E+04   -0.15347E-03   -0.15397E-03  2944   0.185E-02-0.317E-06
CGA:  15    -0.118585372481E+04   -0.14688E-03   -0.14696E-03  2944   0.885E-03-0.436E-05
CGA:  16    -0.118585383114E+04   -0.10633E-03   -0.10572E-03  2944   0.787E-03 0.112E-04
CGA:  17    -0.118585390350E+04   -0.72360E-04   -0.72291E-04  2944   0.337E-03 0.394E-05
CGA:  18    -0.118585392748E+04   -0.23981E-04   -0.23983E-04  2944   0.255E-03 0.245E-05
CGA:  19    -0.118585394211E+04   -0.14628E-04   -0.14654E-04  2944   0.254E-03 0.142E-05
CGA:  20    -0.118585395708E+04   -0.14970E-04   -0.14971E-04  2944   0.105E-03-0.375E-07
CGA:  21    -0.118585396855E+04   -0.11472E-04   -0.11450E-04  2944   0.634E-04 0.511E-06
CGA:  22    -0.118585397509E+04   -0.65361E-05   -0.65564E-05  2944   0.415E-04-0.712E-06
  13 F= -.11858540E+04 E0= -.11858361E+04  d E =-.122536E+00  mag=   118.0000
       N       E                     dE             d eps       ncg     rms          ort
SDA:   1    -0.118571386709E+04    0.14010E+00    0.00000E+00  2944   0.479E+00 0.000E+00
CGA:   2    -0.118576185955E+04   -0.47992E-01   -0.47879E-01  2944   0.847E+00 0.376E-02
CGA:   3    -0.118583258881E+04   -0.70729E-01   -0.70675E-01  2944   0.661E+00 0.506E-02
CGA:   4    -0.118585332837E+04   -0.20740E-01   -0.19234E-01  2944   0.887E-01 0.348E-01
CGA:   5    -0.118586310078E+04   -0.97724E-02   -0.96508E-02  2944   0.680E-01 0.328E-02
CGA:   6    -0.118586809694E+04   -0.49962E-02   -0.50009E-02  2944   0.924E-01 0.451E-03
CGA:   7    -0.118587175781E+04   -0.36609E-02   -0.36138E-02  2944   0.121E-01 0.661E-03
CGA:   8    -0.118587302291E+04   -0.12651E-02   -0.12642E-02  2944   0.101E-01 0.280E-04
CGA:   9    -0.118587344033E+04   -0.41742E-03   -0.41957E-03  2944   0.738E-02-0.966E-05
CGA:  10    -0.118587393425E+04   -0.49393E-03   -0.49349E-03  2944   0.332E-02-0.248E-04
CGA:  11    -0.118587416019E+04   -0.22593E-03   -0.22587E-03  2944   0.198E-02-0.863E-05
CGA:  12    -0.118587430774E+04   -0.14755E-03   -0.14754E-03  2944   0.226E-02 0.325E-05
CGA:  13    -0.118587440549E+04   -0.97754E-04   -0.97821E-04  2944   0.116E-02-0.139E-05
CGA:  14    -0.118587449522E+04   -0.89732E-04   -0.89736E-04  2944   0.551E-03-0.123E-07
CGA:  15    -0.118587453866E+04   -0.43433E-04   -0.43410E-04  2944   0.376E-03 0.363E-05
CGA:  16    -0.118587455652E+04   -0.17865E-04   -0.17920E-04  2944   0.390E-03 0.269E-05
CGA:  17    -0.118587459094E+04   -0.34422E-04   -0.34276E-04  2944   0.130E-03 0.880E-05
CGA:  18    -0.118587460388E+04   -0.12941E-04   -0.12867E-04  2944   0.103E-03 0.297E-05
CGA:  19    -0.118587460787E+04   -0.39890E-05   -0.40063E-05  2944   0.689E-04 0.532E-06
  14 F= -.11858746E+04 E0= -.11858567E+04  d E =-.206328E-01  mag=   118.0000
       N       E                     dE             d eps       ncg     rms          ort
SDA:   1    -0.118585765796E+04    0.16946E-01    0.00000E+00  2944   0.886E-01 0.000E+00
CGA:   2    -0.118586236909E+04   -0.47111E-02   -0.47633E-02  2944   0.616E-01 0.364E-03
CGA:   3    -0.118587067031E+04   -0.83012E-02   -0.83448E-02  2944   0.107E+00-0.671E-03
CGA:   4    -0.118587376476E+04   -0.30944E-02   -0.31311E-02  2944   0.133E-01-0.955E-03
CGA:   5    -0.118587532183E+04   -0.15571E-02   -0.15493E-02  2944   0.659E-02 0.158E-03
CGA:   6    -0.118587613530E+04   -0.81348E-03   -0.81092E-03  2944   0.297E-02 0.556E-04
CGA:   7    -0.118587633950E+04   -0.20419E-03   -0.20433E-03  2944   0.203E-02 0.194E-04
CGA:   8    -0.118587642746E+04   -0.87961E-04   -0.88360E-04  2944   0.107E-02 0.101E-04
CGA:   9    -0.118587648653E+04   -0.59071E-04   -0.59086E-04  2944   0.503E-03 0.388E-05
CGA:  10    -0.118587653410E+04   -0.47574E-04   -0.47489E-04  2944   0.261E-03 0.379E-05
CGA:  11    -0.118587655433E+04   -0.20233E-04   -0.20236E-04  2944   0.146E-03-0.183E-05
CGA:  12    -0.118587657049E+04   -0.16157E-04   -0.16197E-04  2944   0.247E-03-0.112E-05
CGA:  13    -0.118587657895E+04   -0.84543E-05   -0.84160E-05  2944   0.548E-04-0.658E-06
  15 F= -.11858766E+04 E0= -.11858587E+04  d E =-.197107E-02  mag=   118.0000
       N       E                     dE             d eps       ncg     rms          ort
SDA:   1    -0.118585508019E+04    0.21490E-01    0.00000E+00  2944   0.941E-01 0.000E+00
CGA:   2    -0.118585972340E+04   -0.46432E-02   -0.47027E-02  2944   0.114E+00-0.137E-03
CGA:   3    -0.118587012469E+04   -0.10401E-01   -0.10431E-01  2944   0.886E-01-0.128E-02
CGA:   4    -0.118587437842E+04   -0.42537E-02   -0.42732E-02  2944   0.199E-01-0.993E-04
CGA:   5    -0.118587636467E+04   -0.19862E-02   -0.19894E-02  2944   0.134E-01-0.881E-04
CGA:   6    -0.118587715533E+04   -0.79066E-03   -0.79313E-03  2944   0.136E-01 0.602E-04
CGA:   7    -0.118587774989E+04   -0.59456E-03   -0.59543E-03  2944   0.240E-02 0.359E-04
CGA:   8    -0.118587802398E+04   -0.27408E-03   -0.27294E-03  2944   0.137E-02 0.285E-04
CGA:   9    -0.118587810435E+04   -0.80370E-04   -0.80390E-04  2944   0.116E-02 0.624E-05
CGA:  10    -0.118587815487E+04   -0.50520E-04   -0.50763E-04  2944   0.389E-03 0.465E-05
CGA:  11    -0.118587818767E+04   -0.32805E-04   -0.32808E-04  2944   0.248E-03-0.170E-06
CGA:  12    -0.118587821163E+04   -0.23963E-04   -0.23980E-04  2944   0.234E-03-0.845E-06
CGA:  13    -0.118587822326E+04   -0.11627E-04   -0.11583E-04  2944   0.152E-03-0.146E-05
CGA:  14    -0.118587823114E+04   -0.78821E-05   -0.78799E-05  2944   0.761E-04-0.168E-06
  16 F= -.11858782E+04 E0= -.11858604E+04  d E =-.165220E-02  mag=   118.0000
       N       E                     dE             d eps       ncg     rms          ort
SDA:   1    -0.118587176815E+04    0.64551E-02    0.00000E+00  2944   0.321E-01 0.000E+00
CGA:   2    -0.118587403818E+04   -0.22700E-02   -0.22694E-02  2944   0.289E-01-0.126E-03
CGA:   3    -0.118587612369E+04   -0.20855E-02   -0.20856E-02  2944   0.329E-01 0.863E-04
CGA:   4    -0.118587762271E+04   -0.14990E-02   -0.14891E-02  2944   0.105E-01 0.108E-04
CGA:   5    -0.118587832277E+04   -0.70006E-03   -0.70008E-03  2944   0.441E-02 0.728E-06
CGA:   6    -0.118587875126E+04   -0.42849E-03   -0.42820E-03  2944   0.244E-02 0.101E-04
CGA:   7    -0.118587891329E+04   -0.16203E-03   -0.16213E-03  2944   0.176E-02 0.123E-04
CGA:   8    -0.118587897544E+04   -0.62150E-04   -0.62034E-04  2944   0.569E-03 0.820E-05
CGA:   9    -0.118587903021E+04   -0.54769E-04   -0.54643E-04  2944   0.213E-03 0.525E-05
CGA:  10    -0.118587905400E+04   -0.23790E-04   -0.23677E-04  2944   0.146E-03 0.292E-05
CGA:  11    -0.118587905999E+04   -0.59966E-05   -0.60085E-05  2944   0.964E-04 0.286E-06
  17 F= -.11858791E+04 E0= -.11858612E+04  d E =-.828850E-03  mag=   118.0000
       N       E                     dE             d eps       ncg     rms          ort
SDA:   1    -0.118565916797E+04    0.21989E+00    0.00000E+00  2944   0.738E+00 0.000E+00
CGA:   2    -0.118572488276E+04   -0.65715E-01   -0.66352E-01  2944   0.137E+01-0.247E-01
CGA:   3    -0.118580602920E+04   -0.81146E-01   -0.80583E-01  2944   0.866E+00-0.139E-01
CGA:   4    -0.118583881198E+04   -0.32783E-01   -0.34630E-01  2944   0.231E+00-0.172E-01
CGA:   5    -0.118586613467E+04   -0.27323E-01   -0.27304E-01  2944   0.122E+00 0.333E-03
CGA:   6    -0.118587355827E+04   -0.74236E-02   -0.73712E-02  2944   0.101E+00-0.113E-02
CGA:   7    -0.118587713852E+04   -0.35803E-02   -0.36507E-02  2944   0.285E-01-0.939E-03
CGA:   8    -0.118587976057E+04   -0.26220E-02   -0.26196E-02  2944   0.175E-01 0.825E-04
CGA:   9    -0.118588093145E+04   -0.11709E-02   -0.11716E-02  2944   0.567E-02 0.578E-04
CGA:  10    -0.118588122388E+04   -0.29244E-03   -0.29305E-03  2944   0.544E-02 0.746E-07
CGA:  11    -0.118588155616E+04   -0.33228E-03   -0.33172E-03  2944   0.349E-02-0.266E-04
CGA:  12    -0.118588179264E+04   -0.23648E-03   -0.23647E-03  2944   0.110E-02-0.445E-05
CGA:  13    -0.118588191384E+04   -0.12121E-03   -0.12141E-03  2944   0.867E-03-0.479E-05
CGA:  14    -0.118588196443E+04   -0.50589E-04   -0.50576E-04  2944   0.110E-02-0.170E-06
CGA:  15    -0.118588203109E+04   -0.66654E-04   -0.66706E-04  2944   0.388E-03 0.387E-05
CGA:  16    -0.118588206152E+04   -0.30427E-04   -0.30425E-04  2944   0.308E-03 0.551E-06
CGA:  17    -0.118588209658E+04   -0.35064E-04   -0.34917E-04  2944   0.207E-03 0.341E-05
CGA:  18    -0.118588211187E+04   -0.15294E-04   -0.15294E-04  2944   0.299E-03 0.355E-07
CGA:  19    -0.118588212590E+04   -0.14023E-04   -0.13984E-04  2944   0.103E-03-0.125E-05
CGA:  20    -0.118588213627E+04   -0.10373E-04   -0.10381E-04  2944   0.734E-04-0.284E-06
CGA:  21    -0.118588214407E+04   -0.77984E-05   -0.78401E-05  2944   0.697E-04-0.125E-05
  18 F= -.11858821E+04 E0= -.11858642E+04  d E =-.308407E-02  mag=   118.0000
       N       E                     dE             d eps       ncg     rms          ort
SDA:   1    -0.118575514311E+04    0.12699E+00    0.00000E+00  2944   0.401E+00 0.000E+00
CGA:   2    -0.118582094011E+04   -0.65797E-01   -0.64401E-01  2944   0.518E+00 0.169E-01
CGA:   3    -0.118585426778E+04   -0.33328E-01   -0.32791E-01  2944   0.139E+00-0.617E-02
CGA:   4    -0.118587071879E+04   -0.16451E-01   -0.16451E-01  2944   0.102E+00 0.125E-05
CGA:   5    -0.118587881656E+04   -0.80978E-02   -0.80969E-02  2944   0.552E-01-0.491E-03
CGA:   6    -0.118588076365E+04   -0.19471E-02   -0.19835E-02  2944   0.261E-01-0.566E-03
CGA:   7    -0.118588251642E+04   -0.17528E-02   -0.17500E-02  2944   0.131E-01-0.791E-04
CGA:   8    -0.118588342366E+04   -0.90724E-03   -0.90641E-03  2944   0.434E-02-0.388E-04
CGA:   9    -0.118588371386E+04   -0.29020E-03   -0.29013E-03  2944   0.464E-02-0.257E-05
CGA:  10    -0.118588394603E+04   -0.23218E-03   -0.23262E-03  2944   0.258E-02 0.106E-05
CGA:  11    -0.118588411486E+04   -0.16883E-03   -0.16876E-03  2944   0.112E-02-0.478E-05
CGA:  12    -0.118588423483E+04   -0.11997E-03   -0.11993E-03  2944   0.962E-03 0.102E-05
CGA:  13    -0.118588427460E+04   -0.39763E-04   -0.39681E-04  2944   0.659E-03 0.191E-06
CGA:  14    -0.118588433656E+04   -0.61963E-04   -0.61908E-04  2944   0.535E-03 0.272E-05
CGA:  15    -0.118588437789E+04   -0.41328E-04   -0.41324E-04  2944   0.336E-03 0.281E-05
CGA:  16    -0.118588440412E+04   -0.26229E-04   -0.26228E-04  2944   0.385E-03 0.790E-06
CGA:  17    -0.118588442287E+04   -0.18751E-04   -0.18735E-04  2944   0.260E-03-0.214E-06
CGA:  18    -0.118588444904E+04   -0.26176E-04   -0.26134E-04  2944   0.101E-03 0.156E-05
CGA:  19    -0.118588445793E+04   -0.88880E-05   -0.89010E-05  2944   0.154E-03-0.104E-05
  19 F= -.11858845E+04 E0= -.11858664E+04  d E =-.231386E-02  mag=   118.0000
       N       E                     dE             d eps       ncg     rms          ort
SDA:   1    -0.117738346148E+04    0.85010E+01    0.00000E+00  2944   0.370E+02 0.000E+00
CGA:   2    -0.117952143160E+04   -0.21380E+01   -0.23317E+01  2944   0.352E+02 0.577E+01
CGA:   3    -0.118293738445E+04   -0.34160E+01   -0.36861E+01  2944   0.448E+02-0.123E+02
CGA:   4    -0.118416030047E+04   -0.12229E+01   -0.12593E+01  2944   0.818E+01-0.360E+00
CGA:   5    -0.118475503204E+04   -0.59473E+00   -0.59448E+00  2944   0.138E+02-0.308E+00
CGA:   6    -0.118533342264E+04   -0.57839E+00   -0.52008E+00  2944   0.533E+01 0.518E+00
CGA:   7    -0.118559076131E+04   -0.25734E+00   -0.27108E+00  2944   0.343E+01 0.417E-02
CGA:   8    -0.118567376258E+04   -0.83001E-01   -0.10031E+00  2944   0.151E+01-0.382E+00
CGA:   9    -0.118575033566E+04   -0.76573E-01   -0.75521E-01  2944   0.951E+00-0.236E-01
CGA:  10    -0.118580917355E+04   -0.58838E-01   -0.58833E-01  2944   0.425E+00-0.416E-03
CGA:  11    -0.118582302196E+04   -0.13848E-01   -0.14407E-01  2944   0.278E+00-0.861E-02
CGA:  12    -0.118584613268E+04   -0.23111E-01   -0.22848E-01  2944   0.110E+00 0.102E-01
CGA:  13    -0.118585585125E+04   -0.97186E-02   -0.97156E-02  2944   0.110E+00 0.962E-04
CGA:  14    -0.118586297134E+04   -0.71201E-02   -0.71236E-02  2944   0.776E-01 0.487E-03
CGA:  15    -0.118586601184E+04   -0.30405E-02   -0.30280E-02  2944   0.417E-01 0.114E-03
CGA:  16    -0.118586954303E+04   -0.35312E-02   -0.35021E-02  2944   0.300E-01 0.118E-02
CGA:  17    -0.118587279983E+04   -0.32568E-02   -0.32250E-02  2944   0.202E-01 0.728E-03
CGA:  18    -0.118587438824E+04   -0.15884E-02   -0.15885E-02  2944   0.225E-01 0.667E-05
CGA:  19    -0.118587543284E+04   -0.10446E-02   -0.10515E-02  2944   0.176E-01 0.272E-04
CGA:  20    -0.118587700526E+04   -0.15724E-02   -0.15740E-02  2944   0.107E-01-0.451E-04
CGA:  21    -0.118587784962E+04   -0.84437E-03   -0.84411E-03  2944   0.856E-02 0.193E-04
CGA:  22    -0.118587869567E+04   -0.84605E-03   -0.84667E-03  2944   0.636E-02-0.178E-04
CGA:  23    -0.118587900977E+04   -0.31409E-03   -0.31346E-03  2944   0.690E-02-0.677E-05
CGA:  24    -0.118587952095E+04   -0.51118E-03   -0.51105E-03  2944   0.241E-02 0.175E-04
CGA:  25    -0.118587983776E+04   -0.31681E-03   -0.31635E-03  2944   0.236E-02 0.757E-05
CGA:  26    -0.118588001583E+04   -0.17807E-03   -0.17808E-03  2944   0.235E-02-0.311E-05
CGA:  27    -0.118588014184E+04   -0.12601E-03   -0.12618E-03  2944   0.179E-02 0.513E-05
CGA:  28    -0.118588022961E+04   -0.87774E-04   -0.87926E-04  2944   0.823E-03 0.273E-05
CGA:  29    -0.118588034523E+04   -0.11561E-03   -0.11579E-03  2944   0.476E-03-0.248E-05
CGA:  30    -0.118588039094E+04   -0.45717E-04   -0.45753E-04  2944   0.597E-03-0.179E-05
CGA:  31    -0.118588041621E+04   -0.25266E-04   -0.25178E-04  2944   0.362E-03-0.243E-05
SDA:  32    -0.118588044122E+04   -0.25009E-04   -0.24998E-04  2944   0.211E-03-0.242E-05
CGA:  33    -0.118588045237E+04   -0.11150E-04   -0.11126E-04  2944   0.110E-03-0.109E-05
CGA:  34    -0.118588046244E+04   -0.10074E-04   -0.10075E-04  2944   0.215E-03-0.108E-06
CGA:  35    -0.118588047381E+04   -0.11368E-04   -0.11353E-04  2944   0.110E-03-0.612E-06
CGA:  36    -0.118588048209E+04   -0.82773E-05   -0.82791E-05  2944   0.474E-04-0.479E-06
  20 F= -.11858805E+04 E0= -.11858622E+04  d E =0.397584E-02  mag=   118.0000
       N       E                     dE             d eps       ncg     rms          ort
SDA:   1    -0.115873721701E+04    0.27143E+02    0.00000E+00  2944   0.133E+03 0.000E+00
CGA:   2    -0.116216538779E+04   -0.34282E+01   -0.52211E+01  2944   0.172E+03-0.514E+02
CGA:   3    -0.117736096297E+04   -0.15196E+02   -0.15291E+02  2944   0.562E+02-0.138E+01
CGA:   4    -0.117898397618E+04   -0.16230E+01   -0.18994E+01  2944   0.482E+02-0.775E+01
CGA:   5    -0.118024989305E+04   -0.12659E+01   -0.14434E+01  2944   0.338E+02-0.749E+01
CGA:   6    -0.118090752344E+04   -0.65763E+00   -0.59218E+00  2944   0.281E+02 0.948E+00
CGA:   7    -0.118173652027E+04   -0.82900E+00   -0.95236E+00  2944   0.168E+02-0.381E+01
CGA:   8    -0.118216594347E+04   -0.42942E+00   -0.53246E+00  2944   0.245E+02-0.119E+01
CGA:   9    -0.118262680185E+04   -0.46086E+00   -0.39322E+00  2944   0.477E+01 0.168E+01
CGA:  10    -0.118272623416E+04   -0.99432E-01   -0.11045E+00  2944   0.467E+01-0.479E+00
CGA:  11    -0.118287437059E+04   -0.14814E+00   -0.15262E+00  2944   0.593E+01-0.426E-01
CGA:  12    -0.118297791169E+04   -0.10354E+00   -0.11120E+00  2944   0.212E+01-0.424E+00
CGA:  13    -0.118305741636E+04   -0.79505E-01   -0.83775E-01  2944   0.297E+01 0.387E-01
CGA:  14    -0.118314131506E+04   -0.83899E-01   -0.66276E-01  2944   0.952E+00 0.647E+00
CGA:  15    -0.118317637941E+04   -0.35064E-01   -0.33179E-01  2944   0.817E+00 0.309E-01
CGA:  16    -0.118319857764E+04   -0.22198E-01   -0.21169E-01  2944   0.757E+00 0.261E-01
CGA:  17    -0.118322495129E+04   -0.26374E-01   -0.27253E-01  2944   0.123E+01 0.357E-02
CGA:  18    -0.118326160685E+04   -0.36656E-01   -0.39892E-01  2944   0.574E+00-0.489E-03
CGA:  19    -0.118328447705E+04   -0.22870E-01   -0.23540E-01  2944   0.546E+00 0.185E-01
CGA:  20    -0.118330077336E+04   -0.16296E-01   -0.16115E-01  2944   0.154E+00 0.320E-02
CGA:  21    -0.118331389900E+04   -0.13126E-01   -0.13204E-01  2944   0.168E+00-0.228E-02
CGA:  22    -0.118331939046E+04   -0.54915E-02   -0.55453E-02  2944   0.111E+00-0.298E-04
CGA:  23    -0.118332579139E+04   -0.64009E-02   -0.63542E-02  2944   0.837E-01 0.401E-02
CGA:  24    -0.118333133499E+04   -0.55436E-02   -0.56520E-02  2944   0.558E-01-0.552E-02
CGA:  25    -0.118333352698E+04   -0.21920E-02   -0.22068E-02  2944   0.417E-01 0.466E-03
CGA:  26    -0.118333507245E+04   -0.15455E-02   -0.15590E-02  2944   0.167E-01 0.128E-03
CGA:  27    -0.118333737231E+04   -0.22999E-02   -0.23825E-02  2944   0.976E-02-0.114E-02
CGA:  28    -0.118333825857E+04   -0.88627E-03   -0.88323E-03  2944   0.131E-01 0.592E-04
CGA:  29    -0.118333870730E+04   -0.44872E-03   -0.44744E-03  2944   0.817E-02 0.268E-04
CGA:  30    -0.118333943567E+04   -0.72837E-03   -0.71386E-03  2944   0.605E-02 0.395E-03
CGA:  31    -0.118333977767E+04   -0.34200E-03   -0.34138E-03  2944   0.321E-02-0.754E-04
SDA:  32    -0.118334009186E+04   -0.31419E-03   -0.31297E-03  2944   0.309E-02 0.257E-04
CGA:  33    -0.118334021039E+04   -0.11854E-03   -0.11876E-03  2944   0.281E-02-0.853E-06
CGA:  34    -0.118334035005E+04   -0.13965E-03   -0.13961E-03  2944   0.153E-02-0.580E-05
CGA:  35    -0.118334053596E+04   -0.18591E-03   -0.18653E-03  2944   0.117E-02-0.110E-04
CGA:  36    -0.118334062759E+04   -0.91632E-04   -0.91915E-04  2944   0.115E-02-0.138E-04
CGA:  37    -0.118334070476E+04   -0.77170E-04   -0.77136E-04  2944   0.138E-02 0.234E-05
CGA:  38    -0.118334076606E+04   -0.61302E-04   -0.61472E-04  2944   0.107E-02 0.304E-05
CGA:  39    -0.118334081963E+04   -0.53572E-04   -0.53523E-04  2944   0.406E-03-0.154E-05
CGA:  40    -0.118334088603E+04   -0.66396E-04   -0.66804E-04  2944   0.428E-03-0.681E-05
CGA:  41    -0.118334091920E+04   -0.33172E-04   -0.33172E-04  2944   0.567E-03-0.103E-05
CGA:  42    -0.118334093639E+04   -0.17188E-04   -0.17162E-04  2944   0.211E-03-0.445E-06
CGA:  43    -0.118334096343E+04   -0.27040E-04   -0.27425E-04  2944   0.128E-03-0.694E-05
CGA:  44    -0.118334097068E+04   -0.72527E-05   -0.72550E-05  2944   0.124E-03-0.698E-06
CGA:  45    -0.118334098325E+04   -0.12565E-04   -0.12638E-04  2944   0.176E-03-0.276E-05
CGA:  46    -0.118334098786E+04   -0.46135E-05   -0.45930E-05  2944   0.515E-04-0.812E-06
  21 F= -.11833410E+04 E0= -.11833208E+04  d E =0.253949E+01  mag=   118.0000
       N       E                     dE             d eps       ncg     rms          ort
SDA:   1    -0.117723596892E+04    0.61050E+01    0.00000E+00  2944   0.348E+02 0.000E+00
CGA:   2    -0.117844003486E+04   -0.12041E+01   -0.14402E+01  2944   0.399E+02-0.202E+01
CGA:   3    -0.118324580426E+04   -0.48058E+01   -0.53889E+01  2944   0.413E+02-0.764E+01
CGA:   4    -0.118409759571E+04   -0.85179E+00   -0.11059E+01  2944   0.117E+02-0.865E+01
CGA:   5    -0.118443707851E+04   -0.33948E+00   -0.32095E+00  2944   0.570E+01 0.201E+00
CGA:   6    -0.118491462835E+04   -0.47755E+00   -0.47272E+00  2944   0.454E+01 0.251E+00
CGA:   7    -0.118514908597E+04   -0.23446E+00   -0.22212E+00  2944   0.181E+01-0.297E-01
CGA:   8    -0.118521728627E+04   -0.68200E-01   -0.71904E-01  2944   0.134E+01-0.283E-01
CGA:   9    -0.118530710800E+04   -0.89822E-01   -0.89928E-01  2944   0.786E+00-0.344E-01
CGA:  10    -0.118533405318E+04   -0.26945E-01   -0.29032E-01  2944   0.367E+00-0.168E-01
CGA:  11    -0.118535322195E+04   -0.19169E-01   -0.19091E-01  2944   0.311E+00-0.210E-02
CGA:  12    -0.118537409951E+04   -0.20878E-01   -0.20819E-01  2944   0.172E+00 0.112E-01
CGA:  13    -0.118538103752E+04   -0.69380E-02   -0.68585E-02  2944   0.114E+00 0.496E-03
CGA:  14    -0.118539163384E+04   -0.10596E-01   -0.10472E-01  2944   0.817E-01 0.342E-02
CGA:  15    -0.118539489276E+04   -0.32589E-02   -0.32352E-02  2944   0.509E-01 0.141E-03
CGA:  16    -0.118539858544E+04   -0.36927E-02   -0.36856E-02  2944   0.303E-01 0.493E-03
CGA:  17    -0.118540015039E+04   -0.15649E-02   -0.15639E-02  2944   0.280E-01-0.208E-04
CGA:  18    -0.118540180820E+04   -0.16578E-02   -0.16594E-02  2944   0.151E-01 0.181E-03
CGA:  19    -0.118540264858E+04   -0.84038E-03   -0.83967E-03  2944   0.124E-01-0.333E-04
CGA:  20    -0.118540335384E+04   -0.70526E-03   -0.70581E-03  2944   0.833E-02 0.426E-04
CGA:  21    -0.118540375427E+04   -0.40043E-03   -0.40025E-03  2944   0.444E-02 0.105E-05
CGA:  22    -0.118540405313E+04   -0.29886E-03   -0.29870E-03  2944   0.439E-02 0.192E-04
CGA:  23    -0.118540426841E+04   -0.21528E-03   -0.21517E-03  2944   0.256E-02-0.123E-05
CGA:  24    -0.118540442458E+04   -0.15617E-03   -0.15618E-03  2944   0.178E-02 0.725E-05
CGA:  25    -0.118540452740E+04   -0.10282E-03   -0.10281E-03  2944   0.182E-02-0.119E-05
CGA:  26    -0.118540463570E+04   -0.10830E-03   -0.10831E-03  2944   0.947E-03 0.396E-05
CGA:  27    -0.118540469991E+04   -0.64215E-04   -0.64223E-04  2944   0.125E-02-0.107E-05
CGA:  28    -0.118540476490E+04   -0.64988E-04   -0.65017E-04  2944   0.578E-03 0.168E-05
CGA:  29    -0.118540481432E+04   -0.49420E-04   -0.49490E-04  2944   0.972E-03-0.291E-05
CGA:  30    -0.118540486194E+04   -0.47624E-04   -0.47639E-04  2944   0.450E-03-0.179E-06
CGA:  31    -0.118540489097E+04   -0.29022E-04   -0.29024E-04  2944   0.456E-03-0.925E-06
SDA:  32    -0.118540491868E+04   -0.27718E-04   -0.27717E-04  2944   0.351E-03-0.103E-05
CGA:  33    -0.118540492757E+04   -0.88847E-05   -0.88425E-05  2944   0.149E-03-0.730E-06
CGA:  34    -0.118540494370E+04   -0.16134E-04   -0.16227E-04  2944   0.190E-03-0.200E-05
CGA:  35    -0.118540496025E+04   -0.16550E-04   -0.16590E-04  2944   0.131E-03-0.165E-05
CGA:  36    -0.118540496849E+04   -0.82407E-05   -0.82402E-05  2944   0.723E-04-0.132E-05
  22 F= -.11854050E+04 E0= -.11853857E+04  d E =-.206398E+01  mag=   118.0000
       N       E                     dE             d eps       ncg     rms          ort
SDA:   1    -0.118461261210E+04    0.79235E+00    0.00000E+00  2944   0.362E+01 0.000E+00
CGA:   2    -0.118483170585E+04   -0.21909E+00   -0.21813E+00  2944   0.643E+01-0.130E+00
CGA:   3    -0.118533724200E+04   -0.50554E+00   -0.50880E+00  2944   0.712E+01-0.111E+00
CGA:   4    -0.118557489653E+04   -0.23765E+00   -0.25462E+00  2944   0.101E+01-0.200E+00
CGA:   5    -0.118560856099E+04   -0.33664E-01   -0.35547E-01  2944   0.957E+00-0.176E-01
CGA:   6    -0.118567270088E+04   -0.64140E-01   -0.64398E-01  2944   0.466E+00-0.226E-01
CGA:   7    -0.118570543096E+04   -0.32730E-01   -0.33023E-01  2944   0.309E+00-0.179E-01
CGA:   8    -0.118571535085E+04   -0.99199E-02   -0.99565E-02  2944   0.144E+00-0.424E-03
CGA:   9    -0.118572284196E+04   -0.74911E-02   -0.74633E-02  2944   0.592E-01-0.971E-03
CGA:  10    -0.118572773170E+04   -0.48897E-02   -0.48545E-02  2944   0.385E-01 0.123E-02
CGA:  11    -0.118572999203E+04   -0.22603E-02   -0.22629E-02  2944   0.399E-01 0.263E-03
CGA:  12    -0.118573165485E+04   -0.16628E-02   -0.16613E-02  2944   0.192E-01-0.218E-04
CGA:  13    -0.118573311705E+04   -0.14622E-02   -0.14621E-02  2944   0.873E-02 0.340E-05
CGA:  14    -0.118573388127E+04   -0.76422E-03   -0.76394E-03  2944   0.135E-01 0.767E-05
CGA:  15    -0.118573436664E+04   -0.48536E-03   -0.48415E-03  2944   0.546E-02 0.755E-05
CGA:  16    -0.118573474402E+04   -0.37738E-03   -0.37716E-03  2944   0.326E-02 0.204E-04
CGA:  17    -0.118573497956E+04   -0.23554E-03   -0.23561E-03  2944   0.238E-02-0.213E-05
CGA:  18    -0.118573509090E+04   -0.11134E-03   -0.11141E-03  2944   0.241E-02 0.535E-05
CGA:  19    -0.118573522605E+04   -0.13514E-03   -0.13525E-03  2944   0.793E-03 0.157E-04
CGA:  20    -0.118573531442E+04   -0.88371E-04   -0.88174E-04  2944   0.709E-03 0.395E-05
CGA:  21    -0.118573534390E+04   -0.29485E-04   -0.29514E-04  2944   0.469E-03 0.136E-05
CGA:  22    -0.118573536713E+04   -0.23228E-04   -0.23252E-04  2944   0.338E-03 0.149E-05
CGA:  23    -0.118573539933E+04   -0.32202E-04   -0.32272E-04  2944   0.215E-03-0.221E-05
CGA:  24    -0.118573541635E+04   -0.17020E-04   -0.17044E-04  2944   0.236E-03-0.155E-05
CGA:  25    -0.118573542434E+04   -0.79850E-05   -0.79726E-05  2944   0.116E-03-0.789E-06
CGA:  26    -0.118573543568E+04   -0.11347E-04   -0.11433E-04  2944   0.125E-03-0.248E-05
CGA:  27    -0.118573544565E+04   -0.99636E-05   -0.99804E-05  2944   0.106E-03-0.105E-05
  23 F= -.11857354E+04 E0= -.11857167E+04  d E =-.330477E+00  mag=   118.0000
       N       E                     dE             d eps       ncg     rms          ort
SDA:   1    -0.118477359263E+04    0.96184E+00    0.00000E+00  2944   0.493E+01 0.000E+00
CGA:   2    -0.118494512812E+04   -0.17154E+00   -0.18177E+00  2944   0.441E+01-0.113E+00
CGA:   3    -0.118558012670E+04   -0.63500E+00   -0.64988E+00  2944   0.365E+01-0.178E+00
CGA:   4    -0.118571701458E+04   -0.13689E+00   -0.14760E+00  2944   0.745E+00-0.474E-01
CGA:   5    -0.118579006779E+04   -0.73053E-01   -0.75029E-01  2944   0.548E+00-0.466E-01
CGA:   6    -0.118582444523E+04   -0.34377E-01   -0.34395E-01  2944   0.544E+00 0.114E-01
CGA:   7    -0.118584617848E+04   -0.21733E-01   -0.20860E-01  2944   0.133E+00 0.912E-02
CGA:   8    -0.118585582458E+04   -0.96461E-02   -0.96343E-02  2944   0.587E-01 0.133E-02
CGA:   9    -0.118586032674E+04   -0.45022E-02   -0.45009E-02  2944   0.560E-01 0.986E-04
CGA:  10    -0.118586269883E+04   -0.23721E-02   -0.23986E-02  2944   0.315E-01-0.576E-04
CGA:  11    -0.118586509266E+04   -0.23938E-02   -0.23973E-02  2944   0.154E-01-0.210E-03
CGA:  12    -0.118586613460E+04   -0.10419E-02   -0.10416E-02  2944   0.112E-01 0.799E-04
CGA:  13    -0.118586679449E+04   -0.65989E-03   -0.65964E-03  2944   0.123E-01-0.168E-04
CGA:  14    -0.118586752339E+04   -0.72890E-03   -0.72886E-03  2944   0.395E-02-0.468E-05
CGA:  15    -0.118586786419E+04   -0.34080E-03   -0.34047E-03  2944   0.283E-02 0.134E-04
CGA:  16    -0.118586800847E+04   -0.14428E-03   -0.14449E-03  2944   0.269E-02 0.927E-05
CGA:  17    -0.118586818806E+04   -0.17959E-03   -0.17958E-03  2944   0.137E-02 0.116E-04
CGA:  18    -0.118586829750E+04   -0.10944E-03   -0.10917E-03  2944   0.914E-03 0.178E-04
CGA:  19    -0.118586834710E+04   -0.49604E-04   -0.49622E-04  2944   0.635E-03 0.224E-05
CGA:  20    -0.118586837594E+04   -0.28833E-04   -0.28876E-04  2944   0.313E-03 0.199E-05
CGA:  21    -0.118586840995E+04   -0.34011E-04   -0.33951E-04  2944   0.234E-03 0.131E-05
CGA:  22    -0.118586842523E+04   -0.15285E-04   -0.15284E-04  2944   0.256E-03-0.406E-06
CGA:  23    -0.118586843671E+04   -0.11477E-04   -0.11444E-04  2944   0.821E-04-0.143E-05
CGA:  24    -0.118586844417E+04   -0.74602E-05   -0.74735E-05  2944   0.888E-04-0.671E-06
  24 F= -.11858684E+04 E0= -.11858501E+04  d E =-.132999E+00  mag=   118.0000
       N       E                     dE             d eps       ncg     rms          ort
SDA:   1    -0.118580388000E+04    0.64557E-01    0.00000E+00  2944   0.393E+00 0.000E+00
CGA:   2    -0.118581695136E+04   -0.13071E-01   -0.12654E-01  2944   0.281E+00 0.652E-02
CGA:   3    -0.118586479790E+04   -0.47847E-01   -0.47754E-01  2944   0.152E+00 0.107E-02
CGA:   4    -0.118587419385E+04   -0.93959E-02   -0.93997E-02  2944   0.690E-01 0.110E-03
CGA:   5    -0.118587682899E+04   -0.26351E-02   -0.26246E-02  2944   0.495E-01 0.164E-03
CGA:   6    -0.118588088065E+04   -0.40517E-02   -0.40407E-02  2944   0.263E-01 0.652E-03
CGA:   7    -0.118588285839E+04   -0.19777E-02   -0.19771E-02  2944   0.115E-01 0.116E-03
CGA:   8    -0.118588322712E+04   -0.36874E-03   -0.36694E-03  2944   0.511E-02 0.671E-04
CGA:   9    -0.118588358460E+04   -0.35748E-03   -0.35743E-03  2944   0.330E-02 0.307E-04
CGA:  10    -0.118588384241E+04   -0.25781E-03   -0.25795E-03  2944   0.184E-02-0.472E-05
CGA:  11    -0.118588396290E+04   -0.12049E-03   -0.12048E-03  2944   0.164E-02-0.325E-06
CGA:  12    -0.118588402075E+04   -0.57858E-04   -0.58007E-04  2944   0.658E-03-0.549E-06
CGA:  13    -0.118588411020E+04   -0.89450E-04   -0.89592E-04  2944   0.420E-03-0.208E-05
CGA:  14    -0.118588414088E+04   -0.30677E-04   -0.30675E-04  2944   0.458E-03 0.107E-05
CGA:  15    -0.118588415641E+04   -0.15524E-04   -0.15607E-04  2944   0.139E-03 0.195E-05
CGA:  16    -0.118588417317E+04   -0.16760E-04   -0.16522E-04  2944   0.150E-03 0.486E-05
CGA:  17    -0.118588418432E+04   -0.11153E-04   -0.11151E-04  2944   0.874E-04 0.519E-05
CGA:  18    -0.118588418855E+04   -0.42325E-05   -0.42830E-05  2944   0.722E-04 0.205E-05
  25 F= -.11858842E+04 E0= -.11858659E+04  d E =-.157444E-01  mag=   118.0000
       N       E                     dE             d eps       ncg     rms          ort
SDA:   1    -0.118570716224E+04    0.17702E+00    0.00000E+00  2944   0.470E+00 0.000E+00
CGA:   2    -0.118583626333E+04   -0.12910E+00   -0.12669E+00  2944   0.510E+00 0.145E-01
CGA:   3    -0.118585982300E+04   -0.23560E-01   -0.22566E-01  2944   0.260E+00 0.929E-02
CGA:   4    -0.118587105642E+04   -0.11233E-01   -0.11206E-01  2944   0.144E+00 0.409E-03
CGA:   5    -0.118588264989E+04   -0.11593E-01   -0.11578E-01  2944   0.818E-01 0.197E-02
CGA:   6    -0.118588878343E+04   -0.61335E-02   -0.61327E-02  2944   0.655E-01-0.138E-03
CGA:   7    -0.118589074255E+04   -0.19591E-02   -0.19687E-02  2944   0.181E-01-0.106E-03
CGA:   8    -0.118589199742E+04   -0.12549E-02   -0.12540E-02  2944   0.999E-02-0.607E-04
CGA:   9    -0.118589291982E+04   -0.92240E-03   -0.92410E-03  2944   0.787E-02-0.565E-04
CGA:  10    -0.118589315940E+04   -0.23957E-03   -0.24111E-03  2944   0.324E-02-0.233E-04
CGA:  11    -0.118589345944E+04   -0.30005E-03   -0.29972E-03  2944   0.201E-02 0.118E-04
CGA:  12    -0.118589363262E+04   -0.17317E-03   -0.17325E-03  2944   0.226E-02-0.415E-05
CGA:  13    -0.118589373347E+04   -0.10086E-03   -0.10109E-03  2944   0.135E-02 0.250E-05
CGA:  14    -0.118589379197E+04   -0.58494E-04   -0.58593E-04  2944   0.450E-03 0.363E-05
CGA:  15    -0.118589385445E+04   -0.62486E-04   -0.62070E-04  2944   0.463E-03 0.628E-05
CGA:  16    -0.118589387520E+04   -0.20751E-04   -0.20900E-04  2944   0.448E-03 0.447E-05
CGA:  17    -0.118589390488E+04   -0.29678E-04   -0.29733E-04  2944   0.115E-03 0.794E-05
CGA:  18    -0.118589391549E+04   -0.10606E-04   -0.10564E-04  2944   0.135E-03 0.236E-05
CGA:  19    -0.118589392381E+04   -0.83253E-05   -0.83621E-05  2944   0.131E-03 0.286E-05
  26 F= -.11858939E+04 E0= -.11858757E+04  d E =-.973526E-02  mag=   118.0000
       N       E                     dE             d eps       ncg     rms          ort
SDA:   1    -0.118588338818E+04    0.10527E-01    0.00000E+00  2944   0.813E-01 0.000E+00
CGA:   2    -0.118588659851E+04   -0.32103E-02   -0.32191E-02  2944   0.398E-01-0.101E-03
CGA:   3    -0.118588946600E+04   -0.28675E-02   -0.28664E-02  2944   0.614E-01 0.208E-03
CGA:   4    -0.118589332880E+04   -0.38628E-02   -0.38605E-02  2944   0.138E-01-0.183E-03
CGA:   5    -0.118589448455E+04   -0.11557E-02   -0.11536E-02  2944   0.527E-02 0.103E-03
CGA:   6    -0.118589498767E+04   -0.50312E-03   -0.50308E-03  2944   0.858E-02 0.677E-05
CGA:   7    -0.118589527775E+04   -0.29008E-03   -0.29118E-03  2944   0.132E-02 0.148E-04
CGA:   8    -0.118589540871E+04   -0.13097E-03   -0.13057E-03  2944   0.541E-03 0.139E-04
CGA:   9    -0.118589546195E+04   -0.53236E-04   -0.53032E-04  2944   0.626E-03 0.762E-05
CGA:  10    -0.118589548328E+04   -0.21329E-04   -0.21344E-04  2944   0.183E-03 0.187E-05
CGA:  11    -0.118589549633E+04   -0.13054E-04   -0.13054E-04  2944   0.123E-03-0.157E-07
CGA:  12    -0.118589550867E+04   -0.12343E-04   -0.12355E-04  2944   0.108E-03-0.449E-06
CGA:  13    -0.118589551503E+04   -0.63540E-05   -0.63508E-05  2944   0.905E-04-0.287E-06
  27 F= -.11858955E+04 E0= -.11858773E+04  d E =-.159121E-02  mag=   118.0000
       N       E                     dE             d eps       ncg     rms          ort
SDA:   1    -0.118535073272E+04    0.54478E+00    0.00000E+00  2944   0.166E+01 0.000E+00
CGA:   2    -0.118555633476E+04   -0.20560E+00   -0.20539E+00  2944   0.461E+01 0.583E-02
CGA:   3    -0.118573334849E+04   -0.17701E+00   -0.18578E+00  2944   0.997E+00-0.937E-01
CGA:   4    -0.118580747832E+04   -0.74130E-01   -0.74562E-01  2944   0.723E+00-0.447E-01
CGA:   5    -0.118586257827E+04   -0.55100E-01   -0.55038E-01  2944   0.280E+00 0.452E-02
CGA:   6    -0.118587817662E+04   -0.15598E-01   -0.15483E-01  2944   0.219E+00-0.138E-02
CGA:   7    -0.118588690872E+04   -0.87321E-02   -0.89491E-02  2944   0.881E-01-0.158E-02
CGA:   8    -0.118589452705E+04   -0.76183E-02   -0.76305E-02  2944   0.309E-01-0.468E-03
CGA:   9    -0.118589697453E+04   -0.24475E-02   -0.24485E-02  2944   0.114E-01-0.600E-04
CGA:  10    -0.118589800937E+04   -0.10348E-02   -0.10361E-02  2944   0.156E-01-0.447E-04
CGA:  11    -0.118589856398E+04   -0.55461E-03   -0.55813E-03  2944   0.562E-02-0.526E-04
CGA:  12    -0.118589914816E+04   -0.58419E-03   -0.58501E-03  2944   0.211E-02-0.219E-04
CGA:  13    -0.118589939375E+04   -0.24559E-03   -0.24512E-03  2944   0.277E-02 0.111E-04
CGA:  14    -0.118589955171E+04   -0.15795E-03   -0.15785E-03  2944   0.202E-02-0.118E-05
CGA:  15    -0.118589964490E+04   -0.93189E-04   -0.93295E-04  2944   0.126E-02 0.324E-05
CGA:  16    -0.118589974316E+04   -0.98266E-04   -0.98250E-04  2944   0.615E-03 0.335E-05
CGA:  17    -0.118589984914E+04   -0.10598E-03   -0.10548E-03  2944   0.525E-03 0.499E-05
CGA:  18    -0.118589987559E+04   -0.26450E-04   -0.26435E-04  2944   0.519E-03 0.116E-06
CGA:  19    -0.118589990583E+04   -0.30237E-04   -0.30257E-04  2944   0.254E-03 0.361E-06
CGA:  20    -0.118589993237E+04   -0.26542E-04   -0.26588E-04  2944   0.179E-03-0.144E-05
CGA:  21    -0.118589994740E+04   -0.15035E-04   -0.15028E-04  2944   0.123E-03 0.644E-06
CGA:  22    -0.118589995342E+04   -0.60161E-05   -0.60054E-05  2944   0.109E-03-0.314E-06
  28 F= -.11859000E+04 E0= -.11858816E+04  d E =-.443839E-02  mag=   118.0000
       N       E                     dE             d eps       ncg     rms          ort
SDA:   1    -0.118584287635E+04    0.57071E-01    0.00000E+00  2944   0.324E+00 0.000E+00
CGA:   2    -0.118585875929E+04   -0.15883E-01   -0.15391E-01  2944   0.185E+00 0.129E-02
CGA:   3    -0.118587690294E+04   -0.18144E-01   -0.18224E-01  2944   0.367E+00-0.240E-02
CGA:   4    -0.118589029065E+04   -0.13388E-01   -0.13541E-01  2944   0.483E-01-0.211E-02
CGA:   5    -0.118589574559E+04   -0.54549E-02   -0.54363E-02  2944   0.385E-01 0.394E-03
CGA:   6    -0.118589839106E+04   -0.26455E-02   -0.26421E-02  2944   0.331E-01-0.220E-03
CGA:   7    -0.118589943472E+04   -0.10437E-02   -0.10540E-02  2944   0.812E-02-0.233E-03
CGA:   8    -0.118590014583E+04   -0.71111E-03   -0.71285E-03  2944   0.457E-02-0.836E-04
CGA:   9    -0.118590053672E+04   -0.39089E-03   -0.39133E-03  2944   0.201E-02-0.287E-04
CGA:  10    -0.118590062539E+04   -0.88665E-04   -0.88812E-04  2944   0.130E-02-0.239E-05
CGA:  11    -0.118590069409E+04   -0.68701E-04   -0.68654E-04  2944   0.952E-03-0.124E-05
CGA:  12    -0.118590076161E+04   -0.67521E-04   -0.67521E-04  2944   0.409E-03-0.967E-06
CGA:  13    -0.118590080926E+04   -0.47655E-04   -0.47496E-04  2944   0.192E-03 0.340E-05
CGA:  14    -0.118590082936E+04   -0.20097E-04   -0.20137E-04  2944   0.246E-03-0.128E-05
CGA:  15    -0.118590083833E+04   -0.89694E-05   -0.89577E-05  2944   0.136E-03-0.513E-06
CGA:  16    -0.118590085385E+04   -0.15521E-04   -0.15604E-04  2944   0.726E-04-0.201E-05
CGA:  17    -0.118590085956E+04   -0.57147E-05   -0.57180E-05  2944   0.527E-04-0.686E-06
  29 F= -.11859009E+04 E0= -.11858826E+04  d E =-.906144E-03  mag=   118.0000
       N       E                     dE             d eps       ncg     rms          ort
SDA:   1    -0.118588375126E+04    0.17103E-01    0.00000E+00  2944   0.240E+00 0.000E+00
CGA:   2    -0.118588924604E+04   -0.54948E-02   -0.56911E-02  2944   0.489E-01-0.650E-02
CGA:   3    -0.118589310761E+04   -0.38616E-02   -0.38652E-02  2944   0.597E-01-0.275E-03
CGA:   4    -0.118589828474E+04   -0.51771E-02   -0.51729E-02  2944   0.171E-01 0.237E-03
CGA:   5    -0.118589919768E+04   -0.91293E-03   -0.91081E-03  2944   0.148E-01-0.939E-05
CGA:   6    -0.118589997669E+04   -0.77902E-03   -0.78112E-03  2944   0.931E-02 0.502E-05
CGA:   7    -0.118590062552E+04   -0.64883E-03   -0.64865E-03  2944   0.219E-02-0.309E-04
CGA:   8    -0.118590078975E+04   -0.16423E-03   -0.16427E-03  2944   0.222E-02-0.129E-04
CGA:   9    -0.118590087342E+04   -0.83671E-04   -0.83307E-04  2944   0.822E-03-0.468E-05
CGA:  10    -0.118590094322E+04   -0.69801E-04   -0.69834E-04  2944   0.374E-03-0.280E-05
CGA:  11    -0.118590096594E+04   -0.22713E-04   -0.22683E-04  2944   0.251E-03-0.233E-05
CGA:  12    -0.118590097880E+04   -0.12857E-04   -0.12862E-04  2944   0.205E-03 0.247E-06
CGA:  13    -0.118590099214E+04   -0.13347E-04   -0.13350E-04  2944   0.126E-03 0.694E-06
CGA:  14    -0.118590100449E+04   -0.12347E-04   -0.12323E-04  2944   0.644E-04 0.880E-06
CGA:  15    -0.118590100799E+04   -0.35051E-05   -0.34990E-05  2944   0.785E-04-0.334E-06
  30 F= -.11859010E+04 E0= -.11858828E+04  d E =-.148430E-03  mag=   118.0000
