 vasp.6.1.2 22Jul20 (build Nov 12 2024 08:16:06) complex                        
  
 POSCAR found type information on POSCAR CaMnP O 
 05/POSCAR found :  4 types and     155 ions
 scaLAPACK will be used
 -----------------------------------------------------------------------------
|                                                                             |
|               ----> ADVICE to this user running VASP <----                  |
|                                                                             |
|     You have a (more or less) 'large supercell' and for larger cells it     |
|     might be more efficient to use real-space projection operators.         |
|     Therefore, try LREAL= Auto in the INCAR file.                           |
|     Mind: For very accurate calculation, you might also keep the            |
|     reciprocal projection scheme (i.e. LREAL=.FALSE.).                      |
|                                                                             |
 -----------------------------------------------------------------------------

 LDA part: xc-table for Pade appr. of Perdew
 POSCAR found type information on POSCAR CaMnP O 
 00/POSCAR found :  4 types and     155 ions
 POSCAR found type information on POSCAR CaMnP O 
 06/POSCAR found :  4 types and     155 ions
 Jacobian:    28.7777120473155     
 POSCAR found type information on POSCAR CaMnP O 
 00/POSCAR found :  4 types and     155 ions
 POSCAR found type information on POSCAR CaMnP O 
 06/POSCAR found :  4 types and     155 ions
 generate k-points for:    2    2    1
 POSCAR, INCAR and KPOINTS ok, starting setup
 FFT: planning ...
 WAVECAR not read
 entering main loop
       N       E                     dE             d eps       ncg     rms          ort
DAV:   1     0.137139997176E+05    0.13714E+05   -0.62238E+05  2944   0.167E+03
DAV:   2     0.510495457427E+03   -0.13204E+05   -0.12202E+05  2944   0.464E+02
DAV:   3    -0.126452388663E+04   -0.17750E+04   -0.17406E+04  2944   0.182E+02
DAV:   4    -0.134516113302E+04   -0.80637E+02   -0.79553E+02  2944   0.386E+01
DAV:   5    -0.134975179020E+04   -0.45907E+01   -0.45659E+01  2944   0.702E+00
 gam= 0.000 g(H,U,f)=  0.170E+04 0.297E+03 0.124E+03 ort(H,U,f) = 0.000E+00 0.000E+00 0.000E+00
SDA:   6    -0.852943320048E+03    0.49681E+03   -0.45659E+01  2944   0.213E+04 0.000E+00
 gam= 0.000 trial= 0.400  step= 0.271 mean= 0.400
 gam= 0.198 g(H,U,f)=  0.200E+03 0.165E+03 0.545E+02 ort(H,U,f) = 0.224E+02 0.567E+02-0.932E+01
CGA:   7    -0.112063765061E+04   -0.26769E+03   -0.28809E+03  2944   0.420E+03 0.698E+02
 gam= 0.198 trial= 0.394  step= 0.212 mean= 0.394
 gam= 0.415 g(H,U,f)=  0.785E+02 0.611E+02 0.349E+02 ort(H,U,f) =-0.126E+02-0.364E+01-0.116E+02
CGA:   8    -0.115148659870E+04   -0.30849E+02   -0.46107E+02  2944   0.175E+03-0.278E+02
 gam= 0.415 trial= 0.384  step= 0.204 mean= 0.384
 gam= 0.871 g(H,U,f)=  0.618E+02 0.708E+02 0.194E+02 ort(H,U,f) =-0.122E+01 0.294E+01-0.217E+00
CGA:   9    -0.115972061144E+04   -0.82340E+01   -0.16625E+02  2944   0.152E+03 0.151E+01
 gam= 0.871 trial= 0.375  step= 0.166 mean= 0.375
 gam= 1.042 g(H,U,f)=  0.630E+02 0.859E+02 0.964E+01 ort(H,U,f) =-0.233E+02 0.242E+02 0.189E+01
CGA:  10    -0.116454627763E+04   -0.48257E+01   -0.12719E+02  2944   0.158E+03 0.280E+01
 gam= 1.042 trial= 0.365  step= 0.159 mean= 0.365
 gam= 0.490 g(H,U,f)=  0.554E+02 0.207E+02 0.155E+01 ort(H,U,f) =-0.377E+02 0.981E+01 0.798E+01
CGA:  11    -0.116971770024E+04   -0.51714E+01   -0.12823E+02  2944   0.776E+02-0.199E+02
 gam= 0.490 trial= 0.355  step= 0.163 mean= 0.355
 gam= 0.991 g(H,U,f)=  0.334E+02 0.330E+02 0.105E+02 ort(H,U,f) =-0.813E+01-0.107E+02-0.814E+01
CGA:  12    -0.117311258853E+04   -0.33949E+01   -0.55333E+01  2944   0.769E+02-0.270E+02
 gam= 0.991 trial= 0.345  step= 0.101 mean= 0.345
 gam= 1.585 g(H,U,f)=  0.222E+02 0.597E+02 0.400E+02 ort(H,U,f) =-0.166E+01-0.110E+02 0.151E+02
CGA:  13    -0.117793166717E+04   -0.48191E+01   -0.25275E+01  2944   0.122E+03 0.240E+01
 gam= 1.585 trial= 0.333  step= 0.084 mean= 0.333
 gam= 0.000 g(H,U,f)=  0.474E+02 0.423E+02 0.215E+02 ort(H,U,f) =-0.432E+02-0.334E+02-0.267E+02
CGA:  14    -0.117093409801E+04    0.69976E+01   -0.52606E+01  2944   0.111E+03-0.103E+03
 gam= 0.000 trial= 0.320  step= 0.128 mean= 0.320
 gam= 0.000 g(H,U,f)=  0.192E+02 0.496E+02 0.164E+02 ort(H,U,f) =-0.786E+01-0.949E+02-0.133E+02
CGA:  15    -0.117962314465E+04   -0.86890E+01   -0.71294E+01  2944   0.853E+02-0.116E+03
 gam= 0.000 trial= 0.311  step= 0.111 mean= 0.311
 gam= 0.000 g(H,U,f)=  0.185E+02 0.129E+03 0.145E+03 ort(H,U,f) =-0.424E+01-0.798E+02-0.868E+02
CGA:  16    -0.117769248481E+04    0.19307E+01   -0.47310E+01  2944   0.293E+03-0.171E+03
 gam= 0.000 trial= 0.301  step= 0.136 mean= 0.301
 gam= 0.369 g(H,U,f)=  0.269E+02 0.543E+02 0.267E+02 ort(H,U,f) =-0.136E+02-0.211E+02-0.608E+01
CGA:  17    -0.117656671237E+04    0.11258E+01   -0.19869E+02  2944   0.108E+03-0.408E+02
 gam= 0.369 trial= 0.293  step= 0.118 mean= 0.293
 gam= 0.000 g(H,U,f)=  0.282E+02 0.497E+02 0.579E+02 ort(H,U,f) =-0.130E+02-0.250E+02-0.499E+02
CGA:  18    -0.117440815513E+04    0.21586E+01   -0.54809E+01  2944   0.136E+03-0.879E+02
 gam= 0.000 trial= 0.284  step= 0.103 mean= 0.284
 gam= 0.732 g(H,U,f)=  0.289E+02 0.411E+02 0.295E+02 ort(H,U,f) =-0.219E+02-0.225E+02-0.463E+01
CGA:  19    -0.117607245738E+04   -0.16643E+01   -0.70110E+01  2944   0.994E+02-0.491E+02
 gam= 0.732 trial= 0.275  step= 0.124 mean= 0.275
 gam= 2.101 g(H,U,f)=  0.256E+02 0.668E+02 0.116E+03 ort(H,U,f) =-0.125E+02-0.105E+02-0.254E+02
CGA:  20    -0.117525241778E+04    0.82004E+00   -0.39519E+01  2944   0.209E+03-0.485E+02
 gam= 2.101 trial= 0.267  step= 0.155 mean= 0.267
 gam= 0.104 g(H,U,f)=  0.121E+02 0.968E+01 0.369E-02 ort(H,U,f) =-0.674E+01-0.418E+01 0.413E-02
CGA:  21    -0.118067925529E+04   -0.54268E+01   -0.82839E+01  2944   0.218E+02-0.109E+02
 gam= 0.104 trial= 0.262  step= 0.075 mean= 0.262
 gam= 0.000 g(H,U,f)=  0.623E+01 0.921E+01 0.789E+00 ort(H,U,f) = 0.805E+01 0.116E+02 0.884E+00
CGA:  22    -0.118218116280E+04   -0.15019E+01   -0.77317E+00  2944   0.162E+02 0.205E+02
 gam= 0.000 trial= 0.252  step= 0.053 mean= 0.252
 gam= 0.000 g(H,U,f)=  0.226E+01 0.972E+01 0.238E+01 ort(H,U,f) = 0.344E+01 0.131E+02 0.809E+01
CGA:  23    -0.118340258666E+04   -0.12214E+01   -0.42590E+00  2944   0.144E+02 0.246E+02
 gam= 0.000 trial= 0.242  step= 0.043 mean= 0.242
 gam= 0.000 g(H,U,f)=  0.791E+00 0.420E+01 0.234E+01 ort(H,U,f) = 0.862E+00 0.105E+02 0.735E+01
CGA:  24    -0.118428515444E+04   -0.88257E+00   -0.30881E+00  2944   0.733E+01 0.187E+02
 gam= 0.000 trial= 0.232  step= 0.051 mean= 0.232
 gam= 0.000 g(H,U,f)=  0.152E+01 0.849E+01 0.662E+00 ort(H,U,f) = 0.794E+00-0.489E+01-0.671E+00
CGA:  25    -0.118437905704E+04   -0.93903E-01   -0.18784E+00  2944   0.107E+02-0.477E+01
 gam= 0.000 trial= 0.223  step= 0.047 mean= 0.223
 gam= 0.000 g(H,U,f)=  0.541E+00 0.587E+01 0.335E+01 ort(H,U,f) = 0.511E+00-0.345E+01-0.266E+01
CGA:  26    -0.118446236820E+04   -0.83311E-01   -0.25064E+00  2944   0.976E+01-0.559E+01
 gam= 0.000 trial= 0.215  step= 0.051 mean= 0.215
 gam= 0.000 g(H,U,f)=  0.145E+01 0.112E+02 0.187E+01 ort(H,U,f) = 0.417E+00-0.793E+01-0.145E+01
CGA:  27    -0.118450228270E+04   -0.39915E-01   -0.24759E+00  2944   0.146E+02-0.896E+01
 gam= 0.000 trial= 0.206  step= 0.046 mean= 0.206
 gam= 0.000 g(H,U,f)=  0.534E+00 0.844E+01 0.482E+01 ort(H,U,f) = 0.210E+00-0.677E+01-0.418E+01
CGA:  28    -0.118456607185E+04   -0.63789E-01   -0.33723E+00  2944   0.138E+02-0.107E+02
 gam= 0.000 trial= 0.198  step= 0.052 mean= 0.198
 gam= 0.000 g(H,U,f)=  0.159E+01 0.132E+02 0.625E+01 ort(H,U,f) = 0.137E+00-0.976E+01-0.485E+01
CGA:  29    -0.118454865106E+04    0.17421E-01   -0.35965E+00  2944   0.210E+02-0.145E+02
 gam= 0.000 trial= 0.191  step= 0.049 mean= 0.191
 gam= 0.000 g(H,U,f)=  0.766E+00 0.143E+02 0.929E+01 ort(H,U,f) =-0.159E+00-0.122E+02-0.799E+01
CGA:  30    -0.118454873736E+04   -0.86296E-04   -0.51264E+00  2944   0.244E+02-0.203E+02
 gam= 0.000 trial= 0.184  step= 0.054 mean= 0.184
 gam= 0.000 g(H,U,f)=  0.213E+01 0.179E+02 0.160E+02 ort(H,U,f) =-0.344E+00-0.134E+02-0.127E+02
CGA:  31    -0.118441246159E+04    0.13628E+00   -0.65912E+00  2944   0.361E+02-0.264E+02
 gam= 0.000 trial= 0.177  step= 0.052 mean= 0.177
 gam= 0.000 g(H,U,f)=  0.145E+01 0.269E+02 0.209E+02 ort(H,U,f) =-0.978E+00-0.225E+02-0.171E+02
CGA:  32    -0.118427284099E+04    0.13962E+00   -0.94735E+00  2944   0.493E+02-0.405E+02
 gam= 0.000 trial= 0.171  step= 0.059 mean= 0.171
 gam= 0.000 g(H,U,f)=  0.368E+01 0.310E+02 0.251E+02 ort(H,U,f) =-0.152E+01-0.227E+02-0.192E+02
CGA:  33    -0.118386978857E+04    0.40305E+00   -0.14657E+01  2944   0.597E+02-0.434E+02
 gam= 0.000 trial= 0.166  step= 0.054 mean= 0.166
 gam= 0.000 g(H,U,f)=  0.252E+01 0.388E+02 0.347E+02 ort(H,U,f) =-0.242E+01-0.373E+02-0.327E+02
CGA:  34    -0.118383933234E+04    0.30456E-01   -0.15987E+01  2944   0.760E+02-0.725E+02
 gam= 0.000 trial= 0.160  step= 0.061 mean= 0.160
 gam= 0.000 g(H,U,f)=  0.480E+01 0.353E+02 0.288E+02 ort(H,U,f) =-0.283E+01-0.285E+02-0.239E+02
CGA:  35    -0.118344509489E+04    0.39424E+00   -0.23245E+01  2944   0.689E+02-0.552E+02
 gam= 0.000 trial= 0.155  step= 0.051 mean= 0.155
 gam= 0.000 g(H,U,f)=  0.219E+01 0.365E+02 0.309E+02 ort(H,U,f) =-0.275E+01-0.454E+02-0.378E+02
CGA:  36    -0.118405042962E+04   -0.60533E+00   -0.17555E+01  2944   0.696E+02-0.860E+02
 gam= 0.000 trial= 0.150  step= 0.056 mean= 0.150
 gam= 0.000 g(H,U,f)=  0.348E+01 0.298E+02 0.257E+02 ort(H,U,f) =-0.228E+01-0.279E+02-0.244E+02
CGA:  37    -0.118395440268E+04    0.96027E-01   -0.19376E+01  2944   0.591E+02-0.547E+02
 gam= 0.000 trial= 0.145  step= 0.045 mean= 0.145
 gam= 0.000 g(H,U,f)=  0.116E+01 0.239E+02 0.169E+02 ort(H,U,f) =-0.159E+01-0.345E+02-0.242E+02
CGA:  38    -0.118459396564E+04   -0.63956E+00   -0.13372E+01  2944   0.420E+02-0.603E+02
 gam= 0.000 trial= 0.140  step= 0.047 mean= 0.140
 gam= 0.000 g(H,U,f)=  0.146E+01 0.136E+02 0.138E+02 ort(H,U,f) =-0.918E+00-0.152E+02-0.155E+02
CGA:  39    -0.118473440852E+04   -0.14044E+00   -0.98919E+00  2944   0.289E+02-0.316E+02
 gam= 0.000 trial= 0.135  step= 0.035 mean= 0.135
 gam= 0.205 g(H,U,f)=  0.241E+00 0.413E+01 0.155E+01 ort(H,U,f) =-0.127E+00-0.952E+01-0.381E+01
CGA:  40    -0.118510355941E+04   -0.36915E+00   -0.50974E+00  2944   0.592E+01-0.135E+02
 gam= 0.205 trial= 0.130  step= 0.062 mean= 0.130
 gam= 0.118 g(H,U,f)=  0.197E+00 0.404E+00 0.101E+00 ort(H,U,f) = 0.185E+00-0.178E+00-0.139E+00
CGA:  41    -0.118519579071E+04   -0.92231E-01   -0.97631E-01  2944   0.701E+00-0.132E+00
 gam= 0.118 trial= 0.127  step= 0.087 mean= 0.127
 gam= 1.850 g(H,U,f)=  0.131E+00 0.102E+01 0.142E+00 ort(H,U,f) = 0.144E+00-0.109E+00-0.355E-01
CGA:  42    -0.118522537625E+04   -0.29586E-01   -0.29721E-01  2944   0.130E+01-0.556E-03
 gam= 1.850 trial= 0.125  step= 0.330 mean= 0.125
 gam= 0.000 g(H,U,f)=  0.249E+00 0.150E+01 0.688E+00 ort(H,U,f) = 0.114E+00-0.594E+00-0.184E+00
CGA:  43    -0.118538454706E+04   -0.15917E+00   -0.21354E+00  2944   0.244E+01-0.664E+00
 gam= 0.000 trial= 0.135  step= 0.072 mean= 0.135
 gam= 0.195 g(H,U,f)=  0.102E+00 0.294E+00 0.797E-01 ort(H,U,f) = 0.578E-01-0.832E-01-0.101E+00
CGA:  44    -0.118546189503E+04   -0.77348E-01   -0.87254E-01  2944   0.476E+00-0.126E+00
 gam= 0.195 trial= 0.132  step= 0.090 mean= 0.132
 gam= 0.752 g(H,U,f)=  0.520E-01 0.182E+00 0.124E+00 ort(H,U,f) = 0.508E-01 0.272E-01-0.766E-01
CGA:  45    -0.118548175867E+04   -0.19864E-01   -0.20391E-01  2944   0.358E+00 0.134E-02
 gam= 0.752 trial= 0.130  step= 0.081 mean= 0.130
 gam= 0.583 g(H,U,f)=  0.367E-01 0.137E+00 0.348E-01 ort(H,U,f) = 0.323E-01-0.929E-02-0.224E-01
CGA:  46    -0.118549644138E+04   -0.14683E-01   -0.14508E-01  2944   0.208E+00 0.558E-03
 gam= 0.583 trial= 0.128  step= 0.349 mean= 0.128
 gam= 0.980 g(H,U,f)=  0.444E-01 0.144E+00 0.159E-01 ort(H,U,f) =-0.525E-02 0.309E-01-0.177E-02
CGA:  47    -0.118553541091E+04   -0.38970E-01   -0.36407E-01  2944   0.204E+00 0.239E-01
 gam= 0.980 trial= 0.139  step= 0.191 mean= 0.139
 gam= 0.767 g(H,U,f)=  0.545E-01 0.869E-01 0.154E-01 ort(H,U,f) =-0.211E-01 0.448E-01-0.910E-02
CGA:  48    -0.118555771312E+04   -0.22302E-01   -0.21782E-01  2944   0.157E+00 0.146E-01
 gam= 0.767 trial= 0.141  step= 0.189 mean= 0.141
 gam= 1.339 g(H,U,f)=  0.384E-01 0.112E+00 0.598E-01 ort(H,U,f) = 0.464E-02-0.696E-02-0.229E-02
CGA:  49    -0.118557346515E+04   -0.15752E-01   -0.15888E-01  2944   0.210E+00-0.461E-02
 gam= 1.339 trial= 0.144  step= 0.098 mean= 0.144
 gam= 0.650 g(H,U,f)=  0.328E-01 0.718E-01 0.316E-01 ort(H,U,f) = 0.777E-02 0.162E-01-0.226E-01
CGA:  50    -0.118558279790E+04   -0.93328E-02   -0.99924E-02  2944   0.136E+00 0.144E-02
 gam= 0.650 trial= 0.141  step= 0.187 mean= 0.141
 gam= 0.462 g(H,U,f)=  0.192E-01 0.331E-01 0.106E-01 ort(H,U,f) = 0.751E-02-0.851E-02-0.180E-02
CGA:  51    -0.118559557680E+04   -0.12779E-01   -0.12848E-01  2944   0.629E-01-0.280E-02
 gam= 0.462 trial= 0.144  step= 0.112 mean= 0.144
 gam= 0.601 g(H,U,f)=  0.109E-01 0.181E-01 0.877E-02 ort(H,U,f) = 0.992E-02-0.130E-02-0.791E-02
CGA:  52    -0.118559897160E+04   -0.33948E-02   -0.34504E-02  2944   0.378E-01 0.713E-03
 gam= 0.601 trial= 0.142  step= 0.122 mean= 0.142
 gam= 0.665 g(H,U,f)=  0.512E-02 0.165E-01 0.349E-02 ort(H,U,f) = 0.652E-02-0.444E-02-0.264E-02
CGA:  53    -0.118560132154E+04   -0.23499E-02   -0.23351E-02  2944   0.251E-01-0.566E-03
 gam= 0.665 trial= 0.141  step= 0.171 mean= 0.141
 gam= 0.994 g(H,U,f)=  0.447E-02 0.146E-01 0.594E-02 ort(H,U,f) = 0.150E-02 0.602E-03-0.189E-02
CGA:  54    -0.118560343966E+04   -0.21181E-02   -0.21126E-02  2944   0.250E-01 0.208E-03
 gam= 0.994 trial= 0.143  step= 0.180 mean= 0.143
 gam= 1.149 g(H,U,f)=  0.421E-02 0.179E-01 0.663E-02 ort(H,U,f) =-0.177E-02 0.347E-02-0.328E-02
CGA:  55    -0.118560566845E+04   -0.22288E-02   -0.22692E-02  2944   0.287E-01-0.159E-02
 gam= 1.149 trial= 0.144  step= 0.110 mean= 0.144
 gam= 0.472 g(H,U,f)=  0.454E-02 0.707E-02 0.195E-02 ort(H,U,f) =-0.250E-02 0.424E-02-0.155E-02
CGA:  56    -0.118560712756E+04   -0.14591E-02   -0.14826E-02  2944   0.136E-01 0.191E-03
 gam= 0.472 trial= 0.143  step= 0.280 mean= 0.143
 gam= 2.069 g(H,U,f)=  0.469E-02 0.175E-01 0.588E-02 ort(H,U,f) =-0.586E-03 0.144E-02-0.249E-02
CGA:  57    -0.118560892582E+04   -0.17983E-02   -0.19067E-02  2944   0.280E-01-0.164E-02
 gam= 2.069 trial= 0.150  step= 0.136 mean= 0.150
 gam= 0.518 g(H,U,f)=  0.461E-02 0.873E-02 0.118E-02 ort(H,U,f) =-0.313E-02 0.354E-02 0.290E-03
CGA:  58    -0.118561059635E+04   -0.16705E-02   -0.16825E-02  2944   0.145E-01 0.707E-03
 gam= 0.518 trial= 0.149  step= 0.143 mean= 0.149
 gam= 0.739 g(H,U,f)=  0.285E-02 0.671E-02 0.116E-02 ort(H,U,f) = 0.104E-03 0.718E-03-0.135E-02
CGA:  59    -0.118561166547E+04   -0.10691E-02   -0.10660E-02  2944   0.107E-01-0.530E-03
 gam= 0.739 trial= 0.149  step= 0.120 mean= 0.149
 gam= 0.661 g(H,U,f)=  0.186E-02 0.437E-02 0.863E-03 ort(H,U,f) = 0.774E-03-0.890E-03 0.138E-03
CGA:  60    -0.118561228341E+04   -0.61793E-03   -0.62017E-03  2944   0.709E-02 0.220E-04
 gam= 0.661 trial= 0.147  step= 0.186 mean= 0.147
 gam= 1.265 g(H,U,f)=  0.153E-02 0.593E-02 0.151E-02 ort(H,U,f) = 0.924E-03-0.182E-03-0.898E-03
CGA:  61    -0.118561293980E+04   -0.65640E-03   -0.66058E-03  2944   0.897E-02-0.156E-03
 gam= 1.265 trial= 0.149  step= 0.122 mean= 0.149
 gam= 0.456 g(H,U,f)=  0.926E-03 0.250E-02 0.659E-03 ort(H,U,f) = 0.269E-03-0.387E-03 0.169E-03
CGA:  62    -0.118561347145E+04   -0.53164E-03   -0.53336E-03  2944   0.409E-02 0.512E-04
 gam= 0.456 trial= 0.148  step= 0.156 mean= 0.148
 gam= 0.693 g(H,U,f)=  0.658E-03 0.180E-02 0.375E-03 ort(H,U,f) =-0.443E-03 0.686E-03-0.316E-03
CGA:  63    -0.118561379076E+04   -0.31931E-03   -0.31987E-03  2944   0.283E-02-0.726E-04
 gam= 0.693 trial= 0.148  step= 0.149 mean= 0.148
 gam= 1.418 g(H,U,f)=  0.900E-03 0.258E-02 0.538E-03 ort(H,U,f) =-0.267E-03-0.220E-03 0.405E-03
CGA:  64    -0.118561399770E+04   -0.20694E-03   -0.20701E-03  2944   0.401E-02-0.820E-04
 gam= 1.418 trial= 0.148  step= 0.196 mean= 0.148
 gam= 1.028 g(H,U,f)=  0.103E-02 0.283E-02 0.276E-03 ort(H,U,f) =-0.386E-03 0.921E-03-0.165E-03
CGA:  65    -0.118561439274E+04   -0.39505E-03   -0.38253E-03  2944   0.413E-02 0.370E-03
 gam= 1.028 trial= 0.151  step= 0.110 mean= 0.151
 gam= 0.510 g(H,U,f)=  0.613E-03 0.124E-02 0.257E-03 ort(H,U,f) =-0.857E-04 0.390E-03-0.328E-03
CGA:  66    -0.118561465623E+04   -0.26348E-03   -0.24805E-03  2944   0.211E-02-0.237E-04
 gam= 0.510 trial= 0.149  step= 0.117 mean= 0.149
 gam= 0.719 g(H,U,f)=  0.432E-03 0.865E-03 0.218E-03 ort(H,U,f) = 0.119E-03 0.186E-03-0.314E-03
CGA:  67    -0.118561478037E+04   -0.12415E-03   -0.12240E-03  2944   0.152E-02-0.926E-05
 gam= 0.719 trial= 0.147  step= 0.108 mean= 0.147
 gam= 0.940 g(H,U,f)=  0.410E-03 0.877E-03 0.138E-03 ort(H,U,f) = 0.200E-03-0.964E-04-0.101E-03
CGA:  68    -0.118561486270E+04   -0.82327E-04   -0.81397E-04  2944   0.142E-02 0.210E-05
 gam= 0.940 trial= 0.145  step= 0.128 mean= 0.145
 gam= 1.056 g(H,U,f)=  0.357E-03 0.971E-03 0.176E-03 ort(H,U,f) = 0.200E-03-0.136E-03-0.752E-04
CGA:  69    -0.118561495463E+04   -0.91934E-04   -0.91516E-04  2944   0.150E-02-0.119E-04
 gam= 1.056 trial= 0.144  step= 0.082 mean= 0.144
 gam= 0.671 g(H,U,f)=  0.237E-03 0.613E-03 0.158E-03 ort(H,U,f) = 0.222E-03 0.677E-04-0.265E-03
CGA:  70    -0.118561501794E+04   -0.63308E-04   -0.61429E-04  2944   0.101E-02 0.251E-04
 gam= 0.671 trial= 0.141  step= 0.086 mean= 0.141
 gam= 0.849 g(H,U,f)=  0.143E-03 0.485E-03 0.228E-03 ort(H,U,f) = 0.164E-03 0.935E-04-0.248E-03
CGA:  71    -0.118561506266E+04   -0.44716E-04   -0.43930E-04  2944   0.856E-03 0.972E-05
 gam= 0.849 trial= 0.138  step= 0.088 mean= 0.138
 gam= 0.992 g(H,U,f)=  0.114E-03 0.468E-03 0.268E-03 ort(H,U,f) = 0.744E-04 0.840E-04-0.154E-03
CGA:  72    -0.118561510103E+04   -0.38373E-04   -0.38196E-04  2944   0.849E-03 0.470E-05
 gam= 0.992 trial= 0.136  step= 0.093 mean= 0.136
 gam= 1.145 g(H,U,f)=  0.152E-03 0.549E-03 0.272E-03 ort(H,U,f) =-0.293E-04 0.138E-03-0.106E-03
CGA:  73    -0.118561514158E+04   -0.40549E-04   -0.39926E-04  2944   0.973E-03 0.303E-05
 gam= 1.145 trial= 0.134  step= 0.079 mean= 0.134
 gam= 0.000 g(H,U,f)=  0.198E-03 0.549E-03 0.276E-03 ort(H,U,f) =-0.823E-04 0.882E-04 0.132E-04
SDA:  74    -0.118561518212E+04   -0.40538E-04   -0.38804E-04  2944   0.102E-02 0.191E-04
 gam= 0.000 trial= 0.131  step= 0.191 mean= 0.131
 gam= 1.812 g(H,U,f)=  0.122E-03 0.112E-02 0.614E-03 ort(H,U,f) = 0.316E-04-0.120E-03 0.960E-04
CGA:  75    -0.118561527990E+04   -0.97784E-04   -0.97503E-04  2944   0.185E-02 0.801E-05
 gam= 1.812 trial= 0.134  step= 0.129 mean= 0.134
 gam= 1.143 g(H,U,f)=  0.257E-03 0.133E-02 0.527E-03 ort(H,U,f) =-0.106E-03-0.207E-03 0.314E-03
CGA:  76    -0.118561540048E+04   -0.12058E-03   -0.12058E-03  2944   0.212E-02 0.103E-05
 gam= 1.143 trial= 0.134  step= 0.159 mean= 0.134
 gam= 0.892 g(H,U,f)=  0.385E-03 0.128E-02 0.224E-03 ort(H,U,f) =-0.169E-03 0.174E-03 0.960E-05
CGA:  77    -0.118561556919E+04   -0.16871E-03   -0.16843E-03  2944   0.189E-02 0.152E-04
 gam= 0.892 trial= 0.135  step= 0.200 mean= 0.135
 gam= 0.315 g(H,U,f)=  0.146E-03 0.407E-03 0.422E-04 ort(H,U,f) =-0.759E-04 0.897E-04 0.230E-04
CGA:  78    -0.118561576036E+04   -0.19117E-03   -0.18978E-03  2944   0.595E-03 0.367E-04
 gam= 0.315 trial= 0.138  step= 0.126 mean= 0.138
 gam= 0.292 g(H,U,f)=  0.894E-04 0.647E-04 0.200E-04 ort(H,U,f) = 0.188E-04-0.499E-04 0.296E-04
CGA:  79    -0.118561579846E+04   -0.38102E-04   -0.38099E-04  2944   0.174E-03-0.143E-05
 gam= 0.292 trial= 0.138  step= 0.228 mean= 0.138
 gam= 0.753 g(H,U,f)=  0.400E-04 0.780E-04 0.132E-04 ort(H,U,f) = 0.356E-04-0.316E-04-0.421E-05
CGA:  80    -0.118561581831E+04   -0.19848E-04   -0.19843E-04  2944   0.131E-03-0.141E-06
 gam= 0.753 trial= 0.142  step= 0.254 mean= 0.142
 gam= 0.483 g(H,U,f)=  0.209E-04 0.389E-04 0.355E-05 ort(H,U,f) = 0.139E-04-0.157E-04-0.102E-06
CGA:  81    -0.118561583485E+04   -0.16543E-04   -0.16647E-04  2944   0.633E-04-0.195E-05
 gam= 0.483 trial= 0.148  step= 0.128 mean= 0.148
 gam= 0.765 g(H,U,f)=  0.119E-04 0.283E-04 0.828E-05 ort(H,U,f) = 0.119E-04-0.118E-04-0.468E-07
CGA:  82    -0.118561583885E+04   -0.39967E-05   -0.39979E-05  2944   0.485E-04-0.364E-07
 gam= 0.765 trial= 0.147  step= 0.090 mean= 0.147
 final diagonalization
   1 F= -.11856158E+04 E0= -.11855981E+04  d E =-.118562E+04  mag=   118.0000
quench:  g(F)=  0.000E+00 g(S)=  0.000E+00 dE (1.order)= 0.000E+00
 bond charge predicted
 wavefunctions rotated
       N       E                     dE             d eps       ncg     rms          ort
 gam= 0.000 g(H,U,f)=  0.453E-02 0.226E-01 0.104E-01 ort(H,U,f) = 0.000E+00 0.000E+00 0.000E+00
SDA:   1    -0.118561743850E+04   -0.16037E-02    0.00000E+00  2944   0.376E-01 0.000E+00
 gam= 0.000 trial= 0.144  step= 0.044 mean= 0.144
 gam= 0.099 g(H,U,f)=  0.223E-02 0.125E-02 0.258E-03 ort(H,U,f) = 0.204E-02-0.173E-02-0.132E-02
CGA:   2    -0.118561823830E+04   -0.79979E-03   -0.82910E-03  2944   0.374E-02-0.102E-02
 gam= 0.099 trial= 0.139  step= 0.142 mean= 0.139
 gam= 1.002 g(H,U,f)=  0.150E-02 0.192E-02 0.325E-03 ort(H,U,f) = 0.151E-02-0.135E-02-0.161E-03
CGA:   3    -0.118561849730E+04   -0.25900E-03   -0.25900E-03  2944   0.374E-02 0.664E-05
 gam= 1.002 trial= 0.139  step= 0.203 mean= 0.139
 gam= 0.487 g(H,U,f)=  0.649E-03 0.859E-03 0.318E-03 ort(H,U,f) = 0.572E-03-0.394E-03-0.163E-03
CGA:   4    -0.118561887822E+04   -0.38092E-03   -0.38045E-03  2944   0.182E-02 0.157E-04
 gam= 0.487 trial= 0.142  step= 0.093 mean= 0.142
 gam= 0.648 g(H,U,f)=  0.428E-03 0.514E-03 0.240E-03 ort(H,U,f) = 0.459E-03-0.321E-03-0.136E-03
CGA:   5    -0.118561896303E+04   -0.84806E-04   -0.84811E-04  2944   0.118E-02 0.231E-05
 gam= 0.648 trial= 0.140  step= 0.104 mean= 0.140
 gam= 0.448 g(H,U,f)=  0.244E-03 0.204E-03 0.827E-04 ort(H,U,f) = 0.337E-03-0.229E-03-0.107E-03
CGA:   6    -0.118561902438E+04   -0.61352E-04   -0.61410E-04  2944   0.531E-03 0.113E-05
 gam= 0.448 trial= 0.138  step= 0.233 mean= 0.138
 gam= 0.485 g(H,U,f)=  0.874E-04 0.112E-03 0.580E-04 ort(H,U,f) = 0.547E-04-0.386E-04-0.241E-04
CGA:   7    -0.118561908585E+04   -0.61475E-04   -0.61857E-04  2944   0.257E-03-0.800E-05
 gam= 0.485 trial= 0.143  step= 0.078 mean= 0.143
 gam= 0.580 g(H,U,f)=  0.579E-04 0.717E-04 0.197E-04 ort(H,U,f) = 0.647E-04-0.394E-04-0.261E-04
CGA:   8    -0.118561909573E+04   -0.98800E-05   -0.98653E-05  2944   0.149E-03-0.896E-06
 gam= 0.580 trial= 0.140  step= 0.150 mean= 0.140
 gam= 0.506 g(H,U,f)=  0.260E-04 0.445E-04 0.498E-05 ort(H,U,f) = 0.300E-04-0.291E-04-0.235E-05
CGA:   9    -0.118561910688E+04   -0.11149E-04   -0.11156E-04  2944   0.755E-04-0.139E-05
 gam= 0.506 trial= 0.140  step= 0.130 mean= 0.140
 gam= 0.607 g(H,U,f)=  0.156E-04 0.228E-04 0.742E-05 ort(H,U,f) = 0.152E-04-0.118E-04-0.410E-05
CGA:  10    -0.118561911176E+04   -0.48772E-05   -0.48740E-05  2944   0.458E-04-0.702E-06
 gam= 0.607 trial= 0.140  step= 0.131 mean= 0.140
 final diagonalization
   2 F= -.11856191E+04 E0= -.11856013E+04  d E =-.327291E-02  mag=   118.0000
quench:  g(F)=  0.000E+00 g(S)=  0.000E+00 dE (1.order)= 0.000E+00
 bond charge predicted
 wavefunctions rotated
       N       E                     dE             d eps       ncg     rms          ort
 gam= 0.000 g(H,U,f)=  0.135E+01 0.309E+00 0.200E+00 ort(H,U,f) = 0.000E+00 0.000E+00 0.000E+00
SDA:   1    -0.118517879809E+04    0.44031E+00    0.00000E+00  2944   0.186E+01 0.000E+00
 gam= 0.000 trial= 0.139  step= 0.118 mean= 0.139
 gam= 1.580 g(H,U,f)=  0.945E+00 0.128E+01 0.722E+00 ort(H,U,f) = 0.940E+00-0.651E+00-0.385E+00
CGA:   2    -0.118529138504E+04   -0.11259E+00   -0.10947E+00  2944   0.294E+01-0.954E-01
 gam= 1.580 trial= 0.138  step= 0.156 mean= 0.138
 gam= 0.549 g(H,U,f)=  0.503E+00 0.925E+00 0.188E+00 ort(H,U,f) = 0.316E+00-0.288E+00-0.434E-01
CGA:   3    -0.118550918080E+04   -0.21780E+00   -0.21802E+00  2944   0.162E+01-0.150E-01
 gam= 0.549 trial= 0.139  step= 0.085 mean= 0.139
 gam= 0.324 g(H,U,f)=  0.334E+00 0.131E+00 0.594E-01 ort(H,U,f) = 0.200E+00-0.151E+00-0.662E-01
CGA:   4    -0.118557445088E+04   -0.65270E-01   -0.68721E-01  2944   0.524E+00-0.171E-01
 gam= 0.324 trial= 0.136  step= 0.124 mean= 0.136
 gam= 1.415 g(H,U,f)=  0.190E+00 0.398E+00 0.154E+00 ort(H,U,f) = 0.225E+00-0.155E+00-0.726E-01
CGA:   5    -0.118560676753E+04   -0.32317E-01   -0.32288E-01  2944   0.742E+00-0.203E-02
 gam= 1.415 trial= 0.136  step= 0.113 mean= 0.136
 gam= 0.162 g(H,U,f)=  0.795E-01 0.380E-01 0.296E-02 ort(H,U,f) = 0.359E-01-0.340E-01-0.543E-04
CGA:   6    -0.118564845989E+04   -0.41692E-01   -0.41768E-01  2944   0.121E+00 0.191E-02
 gam= 0.162 trial= 0.135  step= 0.176 mean= 0.135
 gam= 1.217 g(H,U,f)=  0.363E-01 0.723E-01 0.381E-01 ort(H,U,f) = 0.329E-01-0.216E-01-0.979E-02
CGA:   7    -0.118565915606E+04   -0.10696E-01   -0.10654E-01  2944   0.147E+00 0.148E-02
 gam= 1.217 trial= 0.137  step= 0.071 mean= 0.137
 gam= 0.306 g(H,U,f)=  0.195E-01 0.225E-01 0.279E-02 ort(H,U,f) = 0.277E-01-0.194E-01-0.647E-02
CGA:   8    -0.118566456805E+04   -0.54120E-02   -0.52671E-02  2944   0.448E-01 0.181E-02
 gam= 0.306 trial= 0.133  step= 0.156 mean= 0.133
 gam= 0.554 g(H,U,f)=  0.831E-02 0.134E-01 0.310E-02 ort(H,U,f) = 0.638E-02-0.547E-02-0.855E-03
CGA:   9    -0.118566810569E+04   -0.35376E-02   -0.35364E-02  2944   0.248E-01 0.513E-04
 gam= 0.554 trial= 0.134  step= 0.116 mean= 0.134
 gam= 0.454 g(H,U,f)=  0.487E-02 0.460E-02 0.180E-02 ort(H,U,f) = 0.353E-02-0.178E-02-0.162E-02
CGA:  10    -0.118566954022E+04   -0.14345E-02   -0.14383E-02  2944   0.113E-01 0.130E-03
 gam= 0.454 trial= 0.134  step= 0.105 mean= 0.134
 gam= 1.092 g(H,U,f)=  0.351E-02 0.674E-02 0.205E-02 ort(H,U,f) = 0.371E-02-0.255E-02-0.119E-02
CGA:  11    -0.118567013638E+04   -0.59616E-03   -0.59483E-03  2944   0.123E-01-0.253E-04
 gam= 1.092 trial= 0.132  step= 0.154 mean= 0.132
 gam= 0.338 g(H,U,f)=  0.194E-02 0.185E-02 0.361E-03 ort(H,U,f) = 0.902E-03-0.640E-03-0.322E-03
CGA:  12    -0.118567108284E+04   -0.94646E-03   -0.94748E-03  2944   0.415E-02-0.592E-04
 gam= 0.338 trial= 0.133  step= 0.192 mean= 0.133
 gam= 0.780 g(H,U,f)=  0.119E-02 0.137E-02 0.683E-03 ort(H,U,f) = 0.580E-03-0.289E-03-0.259E-03
CGA:  13    -0.118567148070E+04   -0.39786E-03   -0.39676E-03  2944   0.324E-02 0.320E-04
 gam= 0.780 trial= 0.136  step= 0.096 mean= 0.136
 gam= 0.901 g(H,U,f)=  0.961E-03 0.138E-02 0.579E-03 ort(H,U,f) = 0.932E-03-0.541E-03-0.393E-03
CGA:  14    -0.118567163723E+04   -0.15653E-03   -0.15613E-03  2944   0.292E-02-0.106E-05
 gam= 0.901 trial= 0.134  step= 0.155 mean= 0.134
 gam= 0.637 g(H,U,f)=  0.653E-03 0.999E-03 0.206E-03 ort(H,U,f) = 0.488E-03-0.311E-03-0.180E-03
CGA:  15    -0.118567186367E+04   -0.22644E-03   -0.22650E-03  2944   0.186E-02-0.315E-05
 gam= 0.637 trial= 0.135  step= 0.140 mean= 0.135
 gam= 0.509 g(H,U,f)=  0.460E-03 0.427E-03 0.590E-04 ort(H,U,f) = 0.281E-03-0.246E-03-0.346E-04
CGA:  16    -0.118567199353E+04   -0.12986E-03   -0.12986E-03  2944   0.946E-03 0.789E-06
 gam= 0.509 trial= 0.135  step= 0.183 mean= 0.135
 gam= 1.342 g(H,U,f)=  0.344E-03 0.679E-03 0.247E-03 ort(H,U,f) = 0.267E-03-0.187E-03-0.846E-04
CGA:  17    -0.118567208017E+04   -0.86642E-04   -0.86754E-04  2944   0.127E-02-0.431E-05
 gam= 1.342 trial= 0.138  step= 0.084 mean= 0.138
 gam= 0.523 g(H,U,f)=  0.282E-03 0.324E-03 0.588E-04 ort(H,U,f) = 0.360E-03-0.298E-03-0.631E-04
CGA:  18    -0.118567213297E+04   -0.52800E-04   -0.52824E-04  2944   0.664E-03-0.190E-05
 gam= 0.523 trial= 0.135  step= 0.224 mean= 0.135
 gam= 0.611 g(H,U,f)=  0.170E-03 0.186E-03 0.500E-04 ort(H,U,f) = 0.123E-03-0.106E-03-0.201E-04
CGA:  19    -0.118567220698E+04   -0.74011E-04   -0.74166E-04  2944   0.406E-03-0.348E-05
 gam= 0.611 trial= 0.140  step= 0.142 mean= 0.140
 gam= 0.846 g(H,U,f)=  0.121E-03 0.150E-03 0.728E-04 ort(H,U,f) = 0.117E-03-0.873E-04-0.313E-04
CGA:  20    -0.118567223559E+04   -0.28611E-04   -0.28614E-04  2944   0.344E-03-0.180E-05
 gam= 0.846 trial= 0.140  step= 0.100 mean= 0.140
 gam= 0.851 g(H,U,f)=  0.988E-04 0.140E-03 0.539E-04 ort(H,U,f) = 0.132E-03-0.864E-04-0.439E-04
CGA:  21    -0.118567225262E+04   -0.17024E-04   -0.17060E-04  2944   0.292E-03 0.144E-05
 gam= 0.851 trial= 0.138  step= 0.161 mean= 0.138
 gam= 0.612 g(H,U,f)=  0.685E-04 0.975E-04 0.127E-04 ort(H,U,f) = 0.756E-04-0.643E-04-0.865E-05
CGA:  22    -0.118567227626E+04   -0.23646E-04   -0.23616E-04  2944   0.179E-03 0.271E-05
 gam= 0.612 trial= 0.139  step= 0.176 mean= 0.139
 gam= 0.692 g(H,U,f)=  0.489E-04 0.558E-04 0.191E-04 ort(H,U,f) = 0.403E-04-0.302E-04-0.907E-05
CGA:  23    -0.118567229218E+04   -0.15915E-04   -0.15896E-04  2944   0.124E-03 0.101E-05
 gam= 0.692 trial= 0.141  step= 0.118 mean= 0.141
 gam= 1.150 g(H,U,f)=  0.381E-04 0.804E-04 0.238E-04 ort(H,U,f) = 0.443E-04-0.292E-04-0.133E-04
CGA:  24    -0.118567229951E+04   -0.73363E-05   -0.73575E-05  2944   0.142E-03 0.173E-05
 gam= 1.150 trial= 0.140  step= 0.121 mean= 0.140
 final diagonalization
   3 F= -.11856723E+04 E0= -.11856548E+04  d E =-.531878E-01  mag=   118.0000
quench:  g(F)=  0.000E+00 g(S)=  0.000E+00 dE (1.order)= 0.000E+00
 bond charge predicted
 wavefunctions rotated
       N       E                     dE             d eps       ncg     rms          ort
 gam= 0.000 g(H,U,f)=  0.488E+01 0.290E+00 0.107E+00 ort(H,U,f) = 0.000E+00 0.000E+00 0.000E+00
SDA:   1    -0.118402872802E+04    0.16436E+01    0.00000E+00  2944   0.528E+01 0.000E+00
 gam= 0.000 trial= 0.139  step= 0.270 mean= 0.139
 gam= 3.331 g(H,U,f)=  0.247E+01 0.878E+01 0.634E+01 ort(H,U,f) = 0.194E+01-0.141E+01-0.998E+00
CGA:   2    -0.118470734375E+04   -0.67862E+00   -0.71219E+00  2944   0.176E+02-0.473E+00
 gam= 3.331 trial= 0.145  step= 0.072 mean= 0.145
 gam= 0.125 g(H,U,f)=  0.198E+01 0.183E+00 0.344E-01 ort(H,U,f) =-0.886E+00 0.152E+00 0.984E-01
CGA:   3    -0.118524083735E+04   -0.53349E+00   -0.57450E+00  2944   0.220E+01-0.635E+00
 gam= 0.125 trial= 0.142  step= 0.176 mean= 0.142
 gam= 1.637 g(H,U,f)=  0.949E+00 0.191E+01 0.744E+00 ort(H,U,f) = 0.884E+00-0.588E+00-0.196E+00
CGA:   4    -0.118543006578E+04   -0.18923E+00   -0.18675E+00  2944   0.361E+01 0.996E-01
 gam= 1.637 trial= 0.143  step= 0.089 mean= 0.143
 gam= 0.246 g(H,U,f)=  0.418E+00 0.369E+00 0.101E+00 ort(H,U,f) = 0.412E+00-0.230E+00-0.143E+00
CGA:   5    -0.118560751972E+04   -0.17745E+00   -0.16800E+00  2944   0.888E+00 0.394E-01
 gam= 0.246 trial= 0.141  step= 0.117 mean= 0.141
 gam= 0.483 g(H,U,f)=  0.241E+00 0.161E+00 0.272E-01 ort(H,U,f) = 0.209E+00-0.171E+00-0.352E-01
CGA:   6    -0.118565980716E+04   -0.52287E-01   -0.52410E-01  2944   0.429E+00 0.304E-02
 gam= 0.483 trial= 0.139  step= 0.211 mean= 0.139
 gam= 0.551 g(H,U,f)=  0.694E-01 0.137E+00 0.297E-01 ort(H,U,f) = 0.471E-01-0.428E-01-0.581E-02
CGA:   7    -0.118570511897E+04   -0.45312E-01   -0.45377E-01  2944   0.237E+00-0.150E-02
 gam= 0.551 trial= 0.143  step= 0.073 mean= 0.143
 gam= 0.413 g(H,U,f)=  0.426E-01 0.376E-01 0.175E-01 ort(H,U,f) = 0.409E-01-0.203E-01-0.182E-01
CGA:   8    -0.118571393196E+04   -0.88130E-02   -0.86247E-02  2944   0.977E-01 0.246E-02
 gam= 0.413 trial= 0.139  step= 0.119 mean= 0.139
 gam= 0.650 g(H,U,f)=  0.262E-01 0.284E-01 0.891E-02 ort(H,U,f) = 0.273E-01-0.191E-01-0.751E-02
CGA:   9    -0.118571978824E+04   -0.58563E-02   -0.58760E-02  2944   0.635E-01 0.629E-03
 gam= 0.650 trial= 0.138  step= 0.196 mean= 0.138
 gam= 0.406 g(H,U,f)=  0.117E-01 0.113E-01 0.281E-02 ort(H,U,f) = 0.445E-02-0.288E-02-0.208E-02
CGA:  10    -0.118572604155E+04   -0.62533E-02   -0.62718E-02  2944   0.258E-01-0.515E-03
 gam= 0.406 trial= 0.141  step= 0.162 mean= 0.141
 gam= 0.669 g(H,U,f)=  0.737E-02 0.754E-02 0.236E-02 ort(H,U,f) = 0.428E-02-0.267E-02-0.148E-02
CGA:  11    -0.118572812161E+04   -0.20801E-02   -0.20779E-02  2944   0.173E-01 0.134E-03
 gam= 0.669 trial= 0.142  step= 0.124 mean= 0.142
 gam= 1.206 g(H,U,f)=  0.515E-02 0.115E-01 0.418E-02 ort(H,U,f) = 0.515E-02-0.305E-02-0.201E-02
CGA:  12    -0.118572919671E+04   -0.10751E-02   -0.10769E-02  2944   0.208E-01 0.810E-04
 gam= 1.206 trial= 0.141  step= 0.128 mean= 0.141
 gam= 0.341 g(H,U,f)=  0.333E-02 0.339E-02 0.391E-03 ort(H,U,f) = 0.160E-02-0.111E-02-0.498E-03
CGA:  13    -0.118573053500E+04   -0.13383E-02   -0.13379E-02  2944   0.711E-02-0.121E-04
 gam= 0.341 trial= 0.141  step= 0.171 mean= 0.141
 gam= 0.831 g(H,U,f)=  0.249E-02 0.279E-02 0.633E-03 ort(H,U,f) = 0.145E-02-0.115E-02-0.277E-03
CGA:  14    -0.118573114372E+04   -0.60872E-03   -0.60818E-03  2944   0.591E-02 0.284E-04
 gam= 0.831 trial= 0.142  step= 0.221 mean= 0.142
 gam= 0.574 g(H,U,f)=  0.183E-02 0.118E-02 0.382E-03 ort(H,U,f) = 0.838E-03-0.566E-03-0.303E-03
CGA:  15    -0.118573179844E+04   -0.65472E-03   -0.65616E-03  2944   0.339E-02-0.315E-04
 gam= 0.574 trial= 0.146  step= 0.231 mean= 0.146
 gam= 1.405 g(H,U,f)=  0.131E-02 0.255E-02 0.897E-03 ort(H,U,f) = 0.912E-03-0.668E-03-0.234E-03
CGA:  16    -0.118573218914E+04   -0.39070E-03   -0.39021E-03  2944   0.476E-02 0.101E-04
 gam= 1.405 trial= 0.150  step= 0.091 mean= 0.150
 gam= 0.575 g(H,U,f)=  0.103E-02 0.114E-02 0.565E-03 ort(H,U,f) = 0.122E-02-0.747E-03-0.482E-03
CGA:  17    -0.118573240587E+04   -0.21673E-03   -0.21766E-03  2944   0.274E-02-0.405E-05
 gam= 0.575 trial= 0.148  step= 0.141 mean= 0.148
 gam= 0.562 g(H,U,f)=  0.736E-03 0.666E-03 0.136E-03 ort(H,U,f) = 0.771E-03-0.631E-03-0.149E-03
CGA:  18    -0.118573259930E+04   -0.19344E-03   -0.19339E-03  2944   0.154E-02-0.904E-05
 gam= 0.562 trial= 0.147  step= 0.224 mean= 0.147
 gam= 0.804 g(H,U,f)=  0.477E-03 0.687E-03 0.731E-04 ort(H,U,f) = 0.439E-03-0.401E-03-0.349E-04
CGA:  19    -0.118573277109E+04   -0.17178E-03   -0.17168E-03  2944   0.124E-02 0.282E-05
 gam= 0.804 trial= 0.151  step= 0.190 mean= 0.151
 gam= 0.497 g(H,U,f)=  0.302E-03 0.247E-03 0.661E-04 ort(H,U,f) = 0.252E-03-0.210E-03-0.426E-04
CGA:  20    -0.118573288890E+04   -0.11781E-03   -0.11783E-03  2944   0.615E-03-0.648E-06
 gam= 0.497 trial= 0.153  step= 0.191 mean= 0.153
 gam= 1.115 g(H,U,f)=  0.231E-03 0.339E-03 0.116E-03 ort(H,U,f) = 0.211E-03-0.151E-03-0.547E-04
CGA:  21    -0.118573294757E+04   -0.58673E-04   -0.58567E-04  2944   0.686E-03 0.521E-05
 gam= 1.115 trial= 0.155  step= 0.149 mean= 0.155
 gam= 1.224 g(H,U,f)=  0.171E-03 0.485E-03 0.185E-03 ort(H,U,f) = 0.209E-03-0.137E-03-0.706E-04
CGA:  22    -0.118573299903E+04   -0.51464E-04   -0.51466E-04  2944   0.840E-03 0.132E-05
 gam= 1.224 trial= 0.155  step= 0.100 mean= 0.155
 gam= 0.303 g(H,U,f)=  0.130E-03 0.101E-03 0.231E-04 ort(H,U,f) = 0.124E-03-0.896E-04-0.321E-04
CGA:  23    -0.118573304106E+04   -0.42027E-04   -0.42079E-04  2944   0.254E-03 0.240E-05
 gam= 0.303 trial= 0.152  step= 0.255 mean= 0.152
 gam= 0.903 g(H,U,f)=  0.988E-04 0.103E-03 0.282E-04 ort(H,U,f) = 0.574E-04-0.380E-04-0.158E-04
CGA:  24    -0.118573307374E+04   -0.32681E-04   -0.32493E-04  2944   0.230E-03 0.361E-05
 gam= 0.903 trial= 0.157  step= 0.224 mean= 0.157
 gam= 0.898 g(H,U,f)=  0.669E-04 0.125E-03 0.146E-04 ort(H,U,f) = 0.451E-04-0.352E-04-0.944E-05
CGA:  25    -0.118573309984E+04   -0.26098E-04   -0.26086E-04  2944   0.206E-03 0.408E-06
 gam= 0.898 trial= 0.160  step= 0.157 mean= 0.160
 gam= 0.406 g(H,U,f)=  0.444E-04 0.344E-04 0.485E-05 ort(H,U,f) = 0.285E-04-0.259E-04-0.133E-05
CGA:  26    -0.118573311602E+04   -0.16183E-04   -0.16185E-04  2944   0.837E-04 0.123E-05
 gam= 0.406 trial= 0.160  step= 0.162 mean= 0.160
 gam= 1.750 g(H,U,f)=  0.337E-04 0.754E-04 0.374E-04 ort(H,U,f) = 0.333E-04-0.202E-04-0.126E-04
CGA:  27    -0.118573312285E+04   -0.68334E-05   -0.68327E-05  2944   0.147E-03 0.502E-06
 gam= 1.750 trial= 0.160  step= 0.124 mean= 0.160
 final diagonalization
   4 F= -.11857331E+04 E0= -.11857158E+04  d E =-.608233E-01  mag=   118.0000
quench:  g(F)=  0.000E+00 g(S)=  0.000E+00 dE (1.order)= 0.000E+00
 bond charge predicted
 wavefunctions rotated
       N       E                     dE             d eps       ncg     rms          ort
 gam= 0.000 g(H,U,f)=  0.816E+01 0.197E+00 0.284E-01 ort(H,U,f) = 0.000E+00 0.000E+00 0.000E+00
SDA:   1    -0.118301770475E+04    0.27154E+01    0.00000E+00  2944   0.838E+01 0.000E+00
 gam= 0.000 trial= 0.158  step= 0.411 mean= 0.158
 gam= 0.911 g(H,U,f)=  0.320E+01 0.294E+01 0.150E+01 ort(H,U,f) = 0.689E+00-0.419E+00-0.196E+00
CGA:   2    -0.118474942530E+04   -0.17317E+01   -0.17234E+01  2944   0.764E+01 0.737E-01
 gam= 0.911 trial= 0.171  step= 0.089 mean= 0.171
 gam= 0.615 g(H,U,f)=  0.234E+01 0.163E+01 0.732E+00 ort(H,U,f) = 0.191E+01-0.169E+01-0.622E+00
CGA:   3    -0.118504938056E+04   -0.29996E+00   -0.34311E+00  2944   0.470E+01-0.403E+00
 gam= 0.615 trial= 0.167  step= 0.169 mean= 0.167
 gam= 0.915 g(H,U,f)=  0.113E+01 0.235E+01 0.826E+00 ort(H,U,f) = 0.109E+01-0.118E+01-0.491E+00
CGA:   4    -0.118542394668E+04   -0.37457E+00   -0.37546E+00  2944   0.430E+01-0.581E+00
 gam= 0.915 trial= 0.167  step= 0.109 mean= 0.167
 gam= 0.185 g(H,U,f)=  0.608E+00 0.152E+00 0.343E-01 ort(H,U,f) = 0.234E+00-0.183E+00-0.701E-01
CGA:   5    -0.118562215864E+04   -0.19821E+00   -0.20505E+00  2944   0.795E+00-0.185E-01
 gam= 0.185 trial= 0.164  step= 0.224 mean= 0.164
 gam= 1.150 g(H,U,f)=  0.205E+00 0.495E+00 0.214E+00 ort(H,U,f) = 0.186E+00-0.159E+00-0.579E-01
CGA:   6    -0.118570943483E+04   -0.87276E-01   -0.88489E-01  2944   0.914E+00-0.313E-01
 gam= 1.150 trial= 0.167  step= 0.080 mean= 0.167
 gam= 0.329 g(H,U,f)=  0.105E+00 0.169E+00 0.275E-01 ort(H,U,f) = 0.875E-01-0.721E-01-0.465E-01
CGA:   7    -0.118574207503E+04   -0.32640E-01   -0.34957E-01  2944   0.301E+00-0.311E-01
 gam= 0.329 trial= 0.163  step= 0.097 mean= 0.163
 gam= 0.357 g(H,U,f)=  0.598E-01 0.395E-01 0.820E-02 ort(H,U,f) = 0.501E-01-0.409E-01-0.624E-02
CGA:   8    -0.118575673465E+04   -0.14660E-01   -0.14122E-01  2944   0.107E+00 0.295E-02
 gam= 0.357 trial= 0.159  step= 0.199 mean= 0.159
 gam= 0.725 g(H,U,f)=  0.299E-01 0.362E-01 0.118E-01 ort(H,U,f) = 0.224E-01-0.173E-01-0.706E-02
CGA:   9    -0.118576749360E+04   -0.10759E-01   -0.10813E-01  2944   0.779E-01-0.190E-02
 gam= 0.725 trial= 0.161  step= 0.147 mean= 0.161
 gam= 0.889 g(H,U,f)=  0.166E-01 0.358E-01 0.170E-01 ort(H,U,f) = 0.124E-01-0.614E-02-0.611E-02
CGA:  10    -0.118577311078E+04   -0.56172E-02   -0.56193E-02  2944   0.693E-01 0.122E-03
 gam= 0.889 trial= 0.161  step= 0.084 mean= 0.161
 gam= 0.302 g(H,U,f)=  0.114E-01 0.750E-02 0.205E-02 ort(H,U,f) = 0.746E-02-0.413E-02-0.378E-02
CGA:  11    -0.118577597052E+04   -0.28597E-02   -0.29040E-02  2944   0.209E-01-0.448E-03
 gam= 0.302 trial= 0.157  step= 0.201 mean= 0.157
 gam= 1.130 g(H,U,f)=  0.773E-02 0.122E-01 0.372E-02 ort(H,U,f) = 0.516E-02-0.389E-02-0.134E-02
CGA:  12    -0.118577805458E+04   -0.20841E-02   -0.20865E-02  2944   0.236E-01-0.764E-04
 gam= 1.130 trial= 0.159  step= 0.138 mean= 0.159
 gam= 0.666 g(H,U,f)=  0.512E-02 0.747E-02 0.315E-02 ort(H,U,f) = 0.360E-02-0.167E-02-0.181E-02
CGA:  13    -0.118577968200E+04   -0.16274E-02   -0.16305E-02  2944   0.157E-01 0.117E-03
 gam= 0.666 trial= 0.158  step= 0.107 mean= 0.158
 gam= 0.678 g(H,U,f)=  0.406E-02 0.521E-02 0.140E-02 ort(H,U,f) = 0.311E-02-0.178E-02-0.132E-02
CGA:  14    -0.118578052952E+04   -0.84751E-03   -0.84714E-03  2944   0.107E-01 0.773E-05
 gam= 0.678 trial= 0.155  step= 0.156 mean= 0.155
 gam= 0.556 g(H,U,f)=  0.322E-02 0.240E-02 0.308E-03 ort(H,U,f) = 0.202E-02-0.180E-02-0.164E-03
CGA:  15    -0.118578136445E+04   -0.83494E-03   -0.83489E-03  2944   0.593E-02 0.539E-04
 gam= 0.556 trial= 0.156  step= 0.227 mean= 0.156
 gam= 1.763 g(H,U,f)=  0.246E-02 0.554E-02 0.245E-02 ort(H,U,f) = 0.190E-02-0.131E-02-0.627E-03
CGA:  16    -0.118578203851E+04   -0.67406E-03   -0.67542E-03  2944   0.105E-01-0.303E-04
 gam= 1.763 trial= 0.159  step= 0.097 mean= 0.159
 gam= 0.394 g(H,U,f)=  0.183E-02 0.180E-02 0.481E-03 ort(H,U,f) = 0.198E-02-0.142E-02-0.560E-03
CGA:  17    -0.118578254034E+04   -0.50183E-03   -0.50397E-03  2944   0.411E-02-0.644E-06
 gam= 0.394 trial= 0.156  step= 0.165 mean= 0.156
 gam= 0.710 g(H,U,f)=  0.128E-02 0.125E-02 0.395E-03 ort(H,U,f) = 0.113E-02-0.924E-03-0.211E-03
CGA:  18    -0.118578288006E+04   -0.33972E-03   -0.33977E-03  2944   0.292E-02-0.468E-05
 gam= 0.710 trial= 0.156  step= 0.159 mean= 0.156
 gam= 0.987 g(H,U,f)=  0.943E-03 0.129E-02 0.651E-03 ort(H,U,f) = 0.101E-02-0.679E-03-0.305E-03
CGA:  19    -0.118578311218E+04   -0.23212E-03   -0.23207E-03  2944   0.288E-02 0.211E-04
 gam= 0.987 trial= 0.157  step= 0.118 mean= 0.157
 gam= 0.790 g(H,U,f)=  0.703E-03 0.128E-02 0.293E-03 ort(H,U,f) = 0.998E-03-0.769E-03-0.229E-03
CGA:  20    -0.118578328362E+04   -0.17144E-03   -0.17123E-03  2944   0.228E-02-0.522E-07
 gam= 0.790 trial= 0.155  step= 0.162 mean= 0.155
 gam= 0.414 g(H,U,f)=  0.431E-03 0.445E-03 0.657E-04 ort(H,U,f) = 0.404E-03-0.353E-03-0.502E-04
CGA:  21    -0.118578346801E+04   -0.18440E-03   -0.18441E-03  2944   0.941E-03 0.174E-06
 gam= 0.414 trial= 0.155  step= 0.150 mean= 0.155
 gam= 1.190 g(H,U,f)=  0.331E-03 0.550E-03 0.239E-03 ort(H,U,f) = 0.335E-03-0.251E-03-0.821E-04
CGA:  22    -0.118578353842E+04   -0.70411E-04   -0.70412E-04  2944   0.112E-02 0.115E-05
 gam= 1.190 trial= 0.155  step= 0.132 mean= 0.155
 gam= 0.736 g(H,U,f)=  0.265E-03 0.416E-03 0.144E-03 ort(H,U,f) = 0.326E-03-0.211E-03-0.112E-03
CGA:  23    -0.118578361232E+04   -0.73900E-04   -0.73971E-04  2944   0.825E-03 0.376E-05
 gam= 0.736 trial= 0.154  step= 0.169 mean= 0.154
 gam= 0.707 g(H,U,f)=  0.184E-03 0.311E-03 0.876E-04 ort(H,U,f) = 0.148E-03-0.105E-03-0.455E-04
CGA:  24    -0.118578368229E+04   -0.69969E-04   -0.69991E-04  2944   0.583E-03-0.236E-05
 gam= 0.707 trial= 0.154  step= 0.126 mean= 0.154
 gam= 0.637 g(H,U,f)=  0.144E-03 0.169E-03 0.579E-04 ort(H,U,f) = 0.115E-03-0.802E-04-0.341E-04
CGA:  25    -0.118578371894E+04   -0.36650E-04   -0.36667E-04  2944   0.372E-03 0.484E-06
 gam= 0.637 trial= 0.153  step= 0.131 mean= 0.153
 gam= 1.037 g(H,U,f)=  0.121E-03 0.187E-03 0.776E-04 ort(H,U,f) = 0.115E-03-0.695E-04-0.467E-04
CGA:  26    -0.118578374328E+04   -0.24336E-04   -0.24322E-04  2944   0.385E-03-0.915E-06
 gam= 1.037 trial= 0.152  step= 0.166 mean= 0.152
 gam= 0.499 g(H,U,f)=  0.865E-04 0.939E-04 0.121E-04 ort(H,U,f) = 0.617E-04-0.518E-04-0.108E-04
CGA:  27    -0.118578377519E+04   -0.31910E-04   -0.31916E-04  2944   0.192E-03-0.774E-06
 gam= 0.499 trial= 0.153  step= 0.178 mean= 0.153
 gam= 1.201 g(H,U,f)=  0.529E-04 0.128E-03 0.506E-04 ort(H,U,f) = 0.428E-04-0.314E-04-0.128E-04
CGA:  28    -0.118578379226E+04   -0.17068E-04   -0.17088E-04  2944   0.231E-03-0.147E-05
 gam= 1.201 trial= 0.154  step= 0.088 mean= 0.154
 gam= 0.296 g(H,U,f)=  0.373E-04 0.230E-04 0.817E-05 ort(H,U,f) = 0.365E-04-0.253E-04-0.118E-04
CGA:  29    -0.118578380241E+04   -0.10151E-04   -0.10137E-04  2944   0.685E-04-0.533E-06
 gam= 0.296 trial= 0.151  step= 0.204 mean= 0.151
 gam= 1.343 g(H,U,f)=  0.276E-04 0.446E-04 0.198E-04 ort(H,U,f) = 0.238E-04-0.168E-04-0.813E-05
CGA:  30    -0.118578380933E+04   -0.69198E-05   -0.69518E-05  2944   0.920E-04-0.119E-05
 gam= 1.343 trial= 0.153  step= 0.166 mean= 0.153
 final diagonalization
   5 F= -.11857838E+04 E0= -.11857666E+04  d E =-.506865E-01  mag=   118.0000
quench:  g(F)=  0.000E+00 g(S)=  0.000E+00 dE (1.order)= 0.000E+00
 bond charge predicted
 wavefunctions rotated
       N       E                     dE             d eps       ncg     rms          ort
 gam= 0.000 g(H,U,f)=  0.213E+02 0.594E+00 0.151E+00 ort(H,U,f) = 0.000E+00 0.000E+00 0.000E+00
SDA:   1    -0.117864542030E+04    0.71384E+01    0.00000E+00  2944   0.221E+02 0.000E+00
 gam= 0.000 trial= 0.154  step= 0.394 mean= 0.154
 gam= 0.472 g(H,U,f)=  0.728E+01 0.253E+01 0.599E+00 ort(H,U,f) = 0.241E+01-0.568E+00-0.114E+00
CGA:   2    -0.118320459986E+04   -0.45592E+01   -0.43401E+01  2944   0.104E+02 0.172E+01
 gam= 0.472 trial= 0.166  step= 0.139 mean= 0.166
 gam= 1.476 g(H,U,f)=  0.463E+01 0.650E+01 0.423E+01 ort(H,U,f) = 0.477E+01-0.452E+01-0.300E+01
CGA:   3    -0.118410145498E+04   -0.89686E+00   -0.77953E+00  2944   0.154E+02-0.275E+01
 gam= 1.476 trial= 0.164  step= 0.078 mean= 0.164
 gam= 1.412 g(H,U,f)=  0.356E+01 0.133E+02 0.480E+01 ort(H,U,f) = 0.569E+01-0.441E+01-0.885E+00
CGA:   4    -0.118457668241E+04   -0.47523E+00   -0.44036E+00  2944   0.217E+02 0.394E+00
 gam= 1.412 trial= 0.160  step= 0.060 mean= 0.160
 gam= 0.449 g(H,U,f)=  0.264E+01 0.599E+01 0.111E+01 ort(H,U,f) = 0.364E+00-0.308E+01-0.813E+00
CGA:   5    -0.118510514360E+04   -0.52846E+00   -0.66314E+00  2944   0.974E+01-0.353E+01
 gam= 0.449 trial= 0.155  step= 0.073 mean= 0.155
 gam= 0.359 g(H,U,f)=  0.184E+01 0.101E+01 0.644E+00 ort(H,U,f) =-0.184E+00-0.412E+00-0.989E-01
CGA:   6    -0.118536324241E+04   -0.25810E+00   -0.29765E+00  2944   0.350E+01-0.695E+00
 gam= 0.359 trial= 0.151  step= 0.050 mean= 0.151
 gam= 0.552 g(H,U,f)=  0.125E+01 0.544E+00 0.138E+00 ort(H,U,f) = 0.123E+01-0.325E+00-0.218E+00
CGA:   7    -0.118546743753E+04   -0.10420E+00   -0.81598E-01  2944   0.193E+01 0.686E+00
 gam= 0.552 trial= 0.146  step= 0.098 mean= 0.146
 gam= 1.700 g(H,U,f)=  0.578E+00 0.172E+01 0.983E+00 ort(H,U,f) = 0.897E+00-0.588E+00-0.317E+00
CGA:   8    -0.118558352486E+04   -0.11609E+00   -0.11318E+00  2944   0.328E+01-0.829E-02
 gam= 1.700 trial= 0.144  step= 0.046 mean= 0.144
 gam= 0.478 g(H,U,f)=  0.341E+00 0.987E+00 0.239E+00 ort(H,U,f) = 0.377E+00-0.449E+00 0.756E-01
CGA:   9    -0.118565834030E+04   -0.74815E-01   -0.74395E-01  2944   0.157E+01 0.404E-02
 gam= 0.478 trial= 0.139  step= 0.048 mean= 0.139
 gam= 0.605 g(H,U,f)=  0.276E+00 0.573E+00 0.987E-01 ort(H,U,f) = 0.116E-01-0.786E-01-0.135E+00
CGA:  10    -0.118568954859E+04   -0.31208E-01   -0.37682E-01  2944   0.947E+00-0.202E+00
 gam= 0.605 trial= 0.134  step= 0.052 mean= 0.134
 gam= 0.541 g(H,U,f)=  0.229E+00 0.174E+00 0.110E+00 ort(H,U,f) = 0.451E-01-0.234E-01-0.396E-01
CGA:  11    -0.118571053901E+04   -0.20990E-01   -0.21649E-01  2944   0.513E+00-0.179E-01
 gam= 0.541 trial= 0.130  step= 0.050 mean= 0.130
 gam= 0.739 g(H,U,f)=  0.184E+00 0.163E+00 0.323E-01 ort(H,U,f) = 0.159E+00-0.124E+00-0.252E-01
CGA:  12    -0.118572351374E+04   -0.12975E-01   -0.12646E-01  2944   0.379E+00 0.927E-02
 gam= 0.739 trial= 0.126  step= 0.086 mean= 0.126
 gam= 1.634 g(H,U,f)=  0.118E+00 0.339E+00 0.163E+00 ort(H,U,f) = 0.154E+00-0.869E-01-0.678E-01
CGA:  13    -0.118574061651E+04   -0.17103E-01   -0.16687E-01  2944   0.620E+00-0.851E-03
 gam= 1.634 trial= 0.124  step= 0.053 mean= 0.124
 gam= 0.522 g(H,U,f)=  0.807E-01 0.172E+00 0.709E-01 ort(H,U,f) = 0.848E-01-0.741E-01-0.158E-01
CGA:  14    -0.118575689881E+04   -0.16282E-01   -0.16490E-01  2944   0.324E+00-0.515E-02
 gam= 0.522 trial= 0.121  step= 0.046 mean= 0.121
 gam= 0.663 g(H,U,f)=  0.642E-01 0.123E+00 0.278E-01 ort(H,U,f) = 0.460E-01-0.378E-01-0.197E-01
CGA:  15    -0.118576395646E+04   -0.70577E-02   -0.74484E-02  2944   0.215E+00-0.115E-01
 gam= 0.663 trial= 0.117  step= 0.069 mean= 0.117
 gam= 0.738 g(H,U,f)=  0.439E-01 0.772E-01 0.373E-01 ort(H,U,f) = 0.227E-01-0.742E-02-0.162E-01
CGA:  16    -0.118577098451E+04   -0.70280E-02   -0.71747E-02  2944   0.158E+00-0.995E-03
 gam= 0.738 trial= 0.114  step= 0.045 mean= 0.114
 gam= 0.469 g(H,U,f)=  0.361E-01 0.324E-01 0.575E-02 ort(H,U,f) = 0.264E-01-0.186E-01-0.552E-02
CGA:  17    -0.118577458512E+04   -0.36006E-02   -0.35253E-02  2944   0.742E-01 0.230E-02
 gam= 0.469 trial= 0.111  step= 0.076 mean= 0.111
 gam= 1.383 g(H,U,f)=  0.298E-01 0.514E-01 0.215E-01 ort(H,U,f) = 0.297E-01-0.192E-01-0.106E-01
CGA:  18    -0.118577745799E+04   -0.28729E-02   -0.28527E-02  2944   0.103E+00-0.409E-04
 gam= 1.383 trial= 0.109  step= 0.067 mean= 0.109
 gam= 0.796 g(H,U,f)=  0.239E-01 0.470E-01 0.107E-01 ort(H,U,f) = 0.331E-01-0.324E-01-0.670E-03
CGA:  19    -0.118578088212E+04   -0.34241E-02   -0.34299E-02  2944   0.817E-01-0.163E-04
 gam= 0.796 trial= 0.107  step= 0.060 mean= 0.107
 gam= 0.955 g(H,U,f)=  0.193E-01 0.500E-01 0.883E-02 ort(H,U,f) = 0.249E-01-0.168E-01-0.858E-02
CGA:  20    -0.118578330668E+04   -0.24246E-02   -0.24663E-02  2944   0.781E-01-0.452E-03
 gam= 0.955 trial= 0.105  step= 0.072 mean= 0.105
 gam= 0.726 g(H,U,f)=  0.138E-01 0.267E-01 0.162E-01 ort(H,U,f) = 0.101E-01-0.476E-02-0.523E-02
CGA:  21    -0.118578609561E+04   -0.27889E-02   -0.28007E-02  2944   0.567E-01 0.705E-04
 gam= 0.726 trial= 0.103  step= 0.045 mean= 0.103
 gam= 0.447 g(H,U,f)=  0.115E-01 0.113E-01 0.252E-02 ort(H,U,f) = 0.824E-02-0.824E-02 0.486E-03
CGA:  22    -0.118578738433E+04   -0.12887E-02   -0.12718E-02  2944   0.253E-01 0.481E-03
 gam= 0.447 trial= 0.100  step= 0.073 mean= 0.100
 gam= 1.263 g(H,U,f)=  0.936E-02 0.161E-01 0.656E-02 ort(H,U,f) = 0.895E-02-0.492E-02-0.410E-02
CGA:  23    -0.118578832459E+04   -0.94026E-03   -0.93356E-03  2944   0.320E-01-0.699E-04
 gam= 1.263 trial= 0.099  step= 0.063 mean= 0.099
 gam= 0.724 g(H,U,f)=  0.801E-02 0.109E-01 0.431E-02 ort(H,U,f) = 0.995E-02-0.772E-02-0.220E-02
CGA:  24    -0.118578934007E+04   -0.10155E-02   -0.10079E-02  2944   0.232E-01 0.247E-04
 gam= 0.724 trial= 0.097  step= 0.057 mean= 0.097
 gam= 0.987 g(H,U,f)=  0.712E-02 0.129E-01 0.290E-02 ort(H,U,f) = 0.931E-02-0.717E-02-0.215E-02
CGA:  25    -0.118579000339E+04   -0.66332E-03   -0.66569E-03  2944   0.229E-01-0.153E-04
 gam= 0.987 trial= 0.095  step= 0.080 mean= 0.095
 gam= 1.077 g(H,U,f)=  0.560E-02 0.137E-01 0.528E-02 ort(H,U,f) = 0.706E-02-0.500E-02-0.199E-02
CGA:  26    -0.118579091986E+04   -0.91648E-03   -0.91808E-03  2944   0.246E-01 0.762E-04
 gam= 1.077 trial= 0.094  step= 0.051 mean= 0.094
 gam= 0.604 g(H,U,f)=  0.460E-02 0.885E-02 0.143E-02 ort(H,U,f) = 0.589E-02-0.494E-02-0.941E-03
CGA:  27    -0.118579155031E+04   -0.63044E-03   -0.62975E-03  2944   0.149E-01 0.122E-04
 gam= 0.604 trial= 0.092  step= 0.072 mean= 0.092
 gam= 1.077 g(H,U,f)=  0.342E-02 0.916E-02 0.344E-02 ort(H,U,f) = 0.359E-02-0.216E-02-0.146E-02
CGA:  28    -0.118579208546E+04   -0.53515E-03   -0.53417E-03  2944   0.160E-01-0.252E-04
 gam= 1.077 trial= 0.091  step= 0.052 mean= 0.091
 gam= 0.435 g(H,U,f)=  0.274E-02 0.320E-02 0.103E-02 ort(H,U,f) = 0.267E-02-0.265E-02-0.100E-04
CGA:  29    -0.118579249926E+04   -0.41381E-03   -0.41288E-03  2944   0.696E-02 0.108E-04
 gam= 0.435 trial= 0.089  step= 0.053 mean= 0.089
 gam= 0.880 g(H,U,f)=  0.247E-02 0.283E-02 0.828E-03 ort(H,U,f) = 0.281E-02-0.202E-02-0.790E-03
CGA:  30    -0.118579268213E+04   -0.18287E-03   -0.18384E-03  2944   0.613E-02-0.427E-05
 gam= 0.880 trial= 0.087  step= 0.107 mean= 0.087
 gam= 1.757 g(H,U,f)=  0.209E-02 0.568E-02 0.300E-02 ort(H,U,f) = 0.292E-02-0.207E-02-0.809E-03
CGA:  31    -0.118579301016E+04   -0.32803E-03   -0.32749E-03  2944   0.108E-01 0.417E-04
 gam= 1.757 trial= 0.088  step= 0.062 mean= 0.088
 gam= 0.000 g(H,U,f)=  0.179E-02 0.444E-02 0.129E-02 ort(H,U,f) = 0.347E-02-0.282E-02-0.646E-03
SDA:  32    -0.118579334435E+04   -0.33419E-03   -0.33400E-03  2944   0.752E-02 0.523E-05
 gam= 0.000 trial= 0.087  step= 0.082 mean= 0.087
 gam= 0.209 g(H,U,f)=  0.101E-02 0.503E-03 0.617E-04 ort(H,U,f) = 0.997E-03-0.852E-03-0.189E-03
CGA:  33    -0.118579365315E+04   -0.30880E-03   -0.30858E-03  2944   0.157E-02-0.435E-04
 gam= 0.209 trial= 0.087  step= 0.334 mean= 0.087
 gam= 1.226 g(H,U,f)=  0.740E-03 0.931E-03 0.259E-03 ort(H,U,f) = 0.535E-03-0.432E-03-0.897E-04
CGA:  34    -0.118579391581E+04   -0.26266E-03   -0.26115E-03  2944   0.193E-02 0.135E-04
 gam= 1.226 trial= 0.099  step= 0.226 mean= 0.099
 gam= 1.586 g(H,U,f)=  0.590E-03 0.174E-02 0.728E-03 ort(H,U,f) = 0.576E-03-0.352E-03-0.238E-03
CGA:  35    -0.118579413491E+04   -0.21910E-03   -0.21995E-03  2944   0.306E-02-0.140E-04
 gam= 1.586 trial= 0.105  step= 0.090 mean= 0.105
 gam= 0.448 g(H,U,f)=  0.445E-03 0.758E-03 0.170E-03 ort(H,U,f) = 0.599E-03-0.470E-03-0.125E-03
CGA:  36    -0.118579427093E+04   -0.13602E-03   -0.13610E-03  2944   0.137E-02 0.359E-05
 gam= 0.448 trial= 0.105  step= 0.142 mean= 0.105
 gam= 0.444 g(H,U,f)=  0.324E-03 0.252E-03 0.330E-04 ort(H,U,f) = 0.265E-03-0.216E-03-0.452E-04
CGA:  37    -0.118579436825E+04   -0.97316E-04   -0.97226E-04  2944   0.609E-03 0.380E-05
 gam= 0.444 trial= 0.107  step= 0.270 mean= 0.107
 gam= 0.961 g(H,U,f)=  0.295E-03 0.261E-03 0.299E-04 ort(H,U,f) = 0.198E-03-0.182E-03-0.169E-04
CGA:  38    -0.118579445073E+04   -0.82476E-04   -0.82498E-04  2944   0.586E-03-0.413E-06
 gam= 0.961 trial= 0.115  step= 0.355 mean= 0.115
 gam= 2.261 g(H,U,f)=  0.214E-03 0.748E-03 0.363E-03 ort(H,U,f) = 0.149E-03-0.102E-03-0.468E-04
CGA:  39    -0.118579455465E+04   -0.10392E-03   -0.10392E-03  2944   0.132E-02-0.834E-07
 gam= 2.261 trial= 0.127  step= 0.070 mean= 0.127
 gam= 0.236 g(H,U,f)=  0.177E-03 0.111E-03 0.251E-04 ort(H,U,f) = 0.179E-03-0.129E-03-0.499E-04
CGA:  40    -0.118579460089E+04   -0.46245E-04   -0.46092E-04  2944   0.313E-03-0.556E-06
 gam= 0.236 trial= 0.124  step= 0.212 mean= 0.124
 gam= 1.012 g(H,U,f)=  0.123E-03 0.161E-03 0.327E-04 ort(H,U,f) = 0.107E-03-0.900E-04-0.177E-04
CGA:  41    -0.118579463395E+04   -0.33060E-04   -0.33107E-04  2944   0.317E-03-0.101E-05
 gam= 1.012 trial= 0.128  step= 0.178 mean= 0.128
 gam= 0.785 g(H,U,f)=  0.888E-04 0.142E-03 0.180E-04 ort(H,U,f) = 0.998E-04-0.860E-04-0.119E-04
CGA:  42    -0.118579466212E+04   -0.28169E-04   -0.28119E-04  2944   0.249E-03 0.189E-05
 gam= 0.785 trial= 0.131  step= 0.229 mean= 0.131
 gam= 0.488 g(H,U,f)=  0.574E-04 0.464E-04 0.176E-04 ort(H,U,f) = 0.282E-04-0.228E-04-0.653E-05
CGA:  43    -0.118579469067E+04   -0.28546E-04   -0.28601E-04  2944   0.121E-03-0.112E-05
 gam= 0.488 trial= 0.136  step= 0.106 mean= 0.136
 gam= 1.180 g(H,U,f)=  0.485E-04 0.693E-04 0.254E-04 ort(H,U,f) = 0.505E-04-0.335E-04-0.165E-04
CGA:  44    -0.118579469708E+04   -0.64131E-05   -0.64213E-05  2944   0.143E-03 0.453E-06
 gam= 1.180 trial= 0.134  step= 0.205 mean= 0.134
 gam= 0.608 g(H,U,f)=  0.388E-04 0.411E-04 0.712E-05 ort(H,U,f) = 0.355E-04-0.307E-04-0.445E-05
CGA:  45    -0.118579471179E+04   -0.14713E-04   -0.14701E-04  2944   0.870E-04 0.377E-06
 gam= 0.608 trial= 0.138  step= 0.275 mean= 0.138
 gam= 0.570 g(H,U,f)=  0.236E-04 0.185E-04 0.745E-05 ort(H,U,f) = 0.109E-04-0.645E-05-0.417E-05
CGA:  46    -0.118579472378E+04   -0.11992E-04   -0.11973E-04  2944   0.496E-04 0.262E-06
 gam= 0.570 trial= 0.145  step= 0.183 mean= 0.145
 gam= 0.911 g(H,U,f)=  0.172E-04 0.203E-04 0.767E-05 ort(H,U,f) = 0.122E-04-0.749E-05-0.377E-05
CGA:  47    -0.118579472834E+04   -0.45577E-05   -0.45393E-05  2944   0.452E-04 0.946E-06
 gam= 0.911 trial= 0.146  step= 0.116 mean= 0.146
 final diagonalization
   6 F= -.11857947E+04 E0= -.11857777E+04  d E =-.109190E-01  mag=   118.0000
quench:  g(F)=  0.000E+00 g(S)=  0.000E+00 dE (1.order)= 0.000E+00
 bond charge predicted
 wavefunctions rotated
       N       E                     dE             d eps       ncg     rms          ort
 gam= 0.000 g(H,U,f)=  0.167E+01 0.240E+00 0.109E+00 ort(H,U,f) = 0.000E+00 0.000E+00 0.000E+00
SDA:   1    -0.118517272887E+04    0.62199E+00    0.00000E+00  2944   0.202E+01 0.000E+00
 gam= 0.000 trial= 0.145  step= 0.190 mean= 0.145
 gam= 1.648 g(H,U,f)=  0.101E+01 0.134E+01 0.969E+00 ort(H,U,f) = 0.997E+00-0.390E+00-0.312E+00
CGA:   2    -0.118537375558E+04   -0.20103E+00   -0.19189E+00  2944   0.332E+01 0.296E+00
 gam= 1.648 trial= 0.147  step= 0.135 mean= 0.147
 gam= 0.599 g(H,U,f)=  0.551E+00 0.107E+01 0.366E+00 ort(H,U,f) = 0.717E+00-0.686E+00-0.295E+00
CGA:   3    -0.118563462472E+04   -0.26087E+00   -0.25691E+00  2944   0.199E+01-0.263E+00
 gam= 0.599 trial= 0.147  step= 0.099 mean= 0.147
 gam= 0.296 g(H,U,f)=  0.353E+00 0.191E+00 0.446E-01 ort(H,U,f) = 0.323E+00-0.267E+00-0.560E-01
CGA:   4    -0.118572310940E+04   -0.88485E-01   -0.90263E-01  2944   0.589E+00-0.305E-03
 gam= 0.296 trial= 0.144  step= 0.195 mean= 0.144
 gam= 0.824 g(H,U,f)=  0.137E+00 0.245E+00 0.103E+00 ort(H,U,f) = 0.159E+00-0.108E+00-0.451E-01
CGA:   5    -0.118578075034E+04   -0.57641E-01   -0.57433E-01  2944   0.485E+00 0.630E-02
 gam= 0.824 trial= 0.147  step= 0.091 mean= 0.147
 gam= 0.441 g(H,U,f)=  0.722E-01 0.982E-01 0.438E-01 ort(H,U,f) = 0.986E-01-0.650E-01-0.349E-01
CGA:   6    -0.118580276688E+04   -0.22017E-01   -0.22380E-01  2944   0.214E+00-0.136E-02
 gam= 0.441 trial= 0.144  step= 0.105 mean= 0.144
 gam= 0.424 g(H,U,f)=  0.388E-01 0.382E-01 0.138E-01 ort(H,U,f) = 0.538E-01-0.388E-01-0.164E-01
CGA:   7    -0.118581418583E+04   -0.11419E-01   -0.11203E-01  2944   0.907E-01-0.141E-02
 gam= 0.424 trial= 0.142  step= 0.166 mean= 0.142
 gam= 0.561 g(H,U,f)=  0.170E-01 0.237E-01 0.102E-01 ort(H,U,f) = 0.193E-01-0.121E-01-0.599E-02
CGA:   8    -0.118582166982E+04   -0.74840E-02   -0.74623E-02  2944   0.509E-01 0.119E-02
 gam= 0.561 trial= 0.143  step= 0.113 mean= 0.143
 gam= 0.659 g(H,U,f)=  0.820E-02 0.182E-01 0.712E-02 ort(H,U,f) = 0.115E-01-0.642E-02-0.534E-02
CGA:   9    -0.118582458674E+04   -0.29169E-02   -0.29014E-02  2944   0.336E-01-0.252E-03
 gam= 0.659 trial= 0.142  step= 0.093 mean= 0.142
 gam= 0.335 g(H,U,f)=  0.489E-02 0.540E-02 0.966E-03 ort(H,U,f) = 0.641E-02-0.516E-02-0.126E-02
CGA:  10    -0.118582613771E+04   -0.15510E-02   -0.15583E-02  2944   0.113E-01-0.161E-04
 gam= 0.335 trial= 0.139  step= 0.192 mean= 0.139
 gam= 0.952 g(H,U,f)=  0.295E-02 0.611E-02 0.165E-02 ort(H,U,f) = 0.267E-02-0.196E-02-0.703E-03
CGA:  11    -0.118582721841E+04   -0.10807E-02   -0.10802E-02  2944   0.107E-01 0.123E-04
 gam= 0.952 trial= 0.142  step= 0.129 mean= 0.142
 gam= 0.608 g(H,U,f)=  0.176E-02 0.326E-02 0.150E-02 ort(H,U,f) = 0.172E-02-0.922E-03-0.803E-03
CGA:  12    -0.118582791090E+04   -0.69250E-03   -0.69251E-03  2944   0.652E-02-0.230E-05
 gam= 0.608 trial= 0.141  step= 0.089 mean= 0.141
 gam= 0.501 g(H,U,f)=  0.134E-02 0.141E-02 0.521E-03 ort(H,U,f) = 0.134E-02-0.740E-03-0.599E-03
CGA:  13    -0.118582820310E+04   -0.29219E-03   -0.29084E-03  2944   0.326E-02-0.753E-06
 gam= 0.501 trial= 0.139  step= 0.222 mean= 0.139
 gam= 0.738 g(H,U,f)=  0.781E-03 0.118E-02 0.452E-03 ort(H,U,f) = 0.502E-03-0.264E-03-0.212E-03
CGA:  14    -0.118582856585E+04   -0.36275E-03   -0.36155E-03  2944   0.241E-02 0.263E-04
 gam= 0.738 trial= 0.143  step= 0.126 mean= 0.143
 gam= 0.759 g(H,U,f)=  0.567E-03 0.861E-03 0.402E-03 ort(H,U,f) = 0.481E-03-0.234E-03-0.251E-03
CGA:  15    -0.118582871916E+04   -0.15331E-03   -0.15322E-03  2944   0.183E-02-0.344E-05
 gam= 0.759 trial= 0.142  step= 0.114 mean= 0.142
 gam= 0.726 g(H,U,f)=  0.420E-03 0.708E-03 0.200E-03 ort(H,U,f) = 0.419E-03-0.263E-03-0.150E-03
CGA:  16    -0.118582882360E+04   -0.10444E-03   -0.10456E-03  2944   0.133E-02 0.609E-05
 gam= 0.726 trial= 0.141  step= 0.149 mean= 0.141
 gam= 0.532 g(H,U,f)=  0.285E-03 0.364E-03 0.590E-04 ort(H,U,f) = 0.255E-03-0.195E-03-0.536E-04
CGA:  17    -0.118582892267E+04   -0.99065E-04   -0.99042E-04  2944   0.707E-03 0.566E-05
 gam= 0.532 trial= 0.141  step= 0.185 mean= 0.141
 gam= 0.943 g(H,U,f)=  0.188E-03 0.357E-03 0.122E-03 ort(H,U,f) = 0.167E-03-0.130E-03-0.367E-04
CGA:  18    -0.118582898844E+04   -0.65772E-04   -0.65776E-04  2944   0.667E-03 0.974E-07
 gam= 0.943 trial= 0.143  step= 0.097 mean= 0.143
 gam= 0.617 g(H,U,f)=  0.144E-03 0.180E-03 0.874E-04 ort(H,U,f) = 0.189E-03-0.116E-03-0.738E-04
CGA:  19    -0.118582902097E+04   -0.32524E-04   -0.32470E-04  2944   0.412E-03-0.118E-05
 gam= 0.617 trial= 0.141  step= 0.156 mean= 0.141
 gam= 0.681 g(H,U,f)=  0.964E-04 0.134E-03 0.504E-04 ort(H,U,f) = 0.111E-03-0.794E-04-0.314E-04
CGA:  20    -0.118582905300E+04   -0.32033E-04   -0.32031E-04  2944   0.280E-03-0.117E-06
 gam= 0.681 trial= 0.142  step= 0.160 mean= 0.142
 gam= 0.646 g(H,U,f)=  0.684E-04 0.805E-04 0.323E-04 ort(H,U,f) = 0.771E-04-0.588E-04-0.219E-04
CGA:  21    -0.118582907535E+04   -0.22354E-04   -0.22389E-04  2944   0.181E-03-0.364E-05
 gam= 0.646 trial= 0.143  step= 0.132 mean= 0.143
 gam= 1.151 g(H,U,f)=  0.555E-04 0.104E-03 0.492E-04 ort(H,U,f) = 0.687E-04-0.478E-04-0.214E-04
CGA:  22    -0.118582908718E+04   -0.11829E-04   -0.11827E-04  2944   0.209E-03-0.475E-06
 gam= 1.151 trial= 0.142  step= 0.134 mean= 0.142
 gam= 0.460 g(H,U,f)=  0.403E-04 0.437E-04 0.120E-04 ort(H,U,f) = 0.524E-04-0.399E-04-0.132E-04
CGA:  23    -0.118582910114E+04   -0.13959E-04   -0.13956E-04  2944   0.960E-04-0.717E-06
 gam= 0.460 trial= 0.142  step= 0.175 mean= 0.142
 gam= 0.976 g(H,U,f)=  0.330E-04 0.518E-04 0.883E-05 ort(H,U,f) = 0.334E-04-0.284E-04-0.470E-05
CGA:  24    -0.118582910949E+04   -0.83551E-05   -0.83499E-05  2944   0.937E-04 0.312E-06
 gam= 0.976 trial= 0.143  step= 0.165 mean= 0.143
 final diagonalization
   7 F= -.11858291E+04 E0= -.11858119E+04  d E =-.343812E-01  mag=   118.0000
quench:  g(F)=  0.000E+00 g(S)=  0.000E+00 dE (1.order)= 0.000E+00
 bond charge predicted
 wavefunctions rotated
       N       E                     dE             d eps       ncg     rms          ort
 gam= 0.000 g(H,U,f)=  0.387E+00 0.128E+00 0.652E-01 ort(H,U,f) = 0.000E+00 0.000E+00 0.000E+00
SDA:   1    -0.118569694591E+04    0.13216E+00    0.00000E+00  2944   0.580E+00 0.000E+00
 gam= 0.000 trial= 0.144  step= 0.094 mean= 0.144
 gam= 1.189 g(H,U,f)=  0.277E+00 0.280E+00 0.132E+00 ort(H,U,f) = 0.284E+00-0.190E+00-0.933E-01
CGA:   2    -0.118572516456E+04   -0.28219E-01   -0.27239E-01  2944   0.689E+00 0.969E-03
 gam= 1.189 trial= 0.142  step= 0.213 mean= 0.142
 gam= 0.213 g(H,U,f)=  0.137E+00 0.820E-02 0.110E-02 ort(H,U,f) = 0.734E-02-0.728E-02 0.182E-03
CGA:   3    -0.118579863846E+04   -0.73474E-01   -0.73464E-01  2944   0.147E+00 0.241E-03
 gam= 0.213 trial= 0.145  step= 0.317 mean= 0.145
 gam= 1.171 g(H,U,f)=  0.441E-01 0.862E-01 0.415E-01 ort(H,U,f) = 0.228E-01-0.140E-01-0.690E-02
CGA:   4    -0.118582207518E+04   -0.23437E-01   -0.23284E-01  2944   0.172E+00 0.183E-02
 gam= 1.171 trial= 0.154  step= 0.060 mean= 0.154
 gam= 0.276 g(H,U,f)=  0.301E-01 0.124E-01 0.497E-02 ort(H,U,f) = 0.288E-01-0.156E-01-0.880E-02
CGA:   5    -0.118582753517E+04   -0.54600E-02   -0.52627E-02  2944   0.474E-01 0.432E-02
 gam= 0.276 trial= 0.149  step= 0.180 mean= 0.149
 gam= 0.797 g(H,U,f)=  0.124E-01 0.203E-01 0.512E-02 ort(H,U,f) = 0.121E-01-0.940E-02-0.297E-02
CGA:   6    -0.118583191106E+04   -0.43759E-02   -0.43821E-02  2944   0.378E-01-0.261E-03
 gam= 0.797 trial= 0.151  step= 0.127 mean= 0.151
 gam= 0.283 g(H,U,f)=  0.483E-02 0.477E-02 0.109E-02 ort(H,U,f) = 0.310E-02-0.250E-02-0.491E-03
CGA:   7    -0.118583429489E+04   -0.23838E-02   -0.23870E-02  2944   0.107E-01 0.105E-03
 gam= 0.283 trial= 0.150  step= 0.111 mean= 0.150
 gam= 0.790 g(H,U,f)=  0.278E-02 0.380E-02 0.187E-02 ort(H,U,f) = 0.261E-02-0.136E-02-0.126E-02
CGA:   8    -0.118583489267E+04   -0.59778E-03   -0.59635E-03  2944   0.844E-02-0.952E-05
 gam= 0.790 trial= 0.148  step= 0.098 mean= 0.148
 gam= 0.546 g(H,U,f)=  0.162E-02 0.274E-02 0.257E-03 ort(H,U,f) = 0.200E-02-0.176E-02-0.228E-03
CGA:   9    -0.118583530452E+04   -0.41185E-03   -0.41134E-03  2944   0.461E-02 0.603E-05
 gam= 0.546 trial= 0.145  step= 0.143 mean= 0.145
 gam= 0.415 g(H,U,f)=  0.882E-03 0.845E-03 0.189E-03 ort(H,U,f) = 0.584E-03-0.437E-03-0.151E-03
CGA:  10    -0.118583563513E+04   -0.33061E-03   -0.33059E-03  2944   0.192E-02-0.420E-05
 gam= 0.415 trial= 0.145  step= 0.198 mean= 0.145
 gam= 0.614 g(H,U,f)=  0.485E-03 0.543E-03 0.149E-03 ort(H,U,f) = 0.230E-03-0.148E-03-0.892E-04
CGA:  11    -0.118583582426E+04   -0.18913E-03   -0.18937E-03  2944   0.118E-02-0.687E-05
 gam= 0.614 trial= 0.148  step= 0.114 mean= 0.148
 gam= 1.167 g(H,U,f)=  0.360E-03 0.722E-03 0.291E-03 ort(H,U,f) = 0.322E-03-0.191E-03-0.131E-03
CGA:  12    -0.118583589120E+04   -0.66939E-04   -0.66971E-04  2944   0.137E-02 0.335E-06
 gam= 1.167 trial= 0.146  step= 0.122 mean= 0.146
 gam= 0.298 g(H,U,f)=  0.221E-03 0.170E-03 0.184E-04 ort(H,U,f) = 0.117E-03-0.818E-04-0.376E-04
CGA:  13    -0.118583597518E+04   -0.83980E-04   -0.83957E-04  2944   0.410E-03-0.231E-05
 gam= 0.298 trial= 0.145  step= 0.301 mean= 0.145
 gam= 0.687 g(H,U,f)=  0.128E-03 0.128E-03 0.259E-04 ort(H,U,f) = 0.314E-04-0.275E-04-0.403E-05
CGA:  14    -0.118583603676E+04   -0.61579E-04   -0.61590E-04  2944   0.282E-03-0.151E-06
 gam= 0.687 trial= 0.153  step= 0.130 mean= 0.153
 gam= 1.140 g(H,U,f)=  0.102E-03 0.145E-03 0.740E-04 ort(H,U,f) = 0.821E-04-0.428E-04-0.375E-04
CGA:  15    -0.118583605507E+04   -0.18318E-04   -0.18343E-04  2944   0.321E-03 0.178E-05
 gam= 1.140 trial= 0.152  step= 0.126 mean= 0.152
 gam= 0.799 g(H,U,f)=  0.787E-04 0.155E-03 0.229E-04 ort(H,U,f) = 0.848E-04-0.678E-04-0.163E-04
CGA:  16    -0.118583607547E+04   -0.20401E-04   -0.20408E-04  2944   0.257E-03 0.760E-06
 gam= 0.799 trial= 0.150  step= 0.130 mean= 0.150
 gam= 0.472 g(H,U,f)=  0.552E-04 0.579E-04 0.828E-05 ort(H,U,f) = 0.492E-04-0.415E-04-0.699E-05
CGA:  17    -0.118583609215E+04   -0.16674E-04   -0.16683E-04  2944   0.121E-03 0.730E-06
 gam= 0.472 trial= 0.149  step= 0.195 mean= 0.149
 gam= 0.593 g(H,U,f)=  0.357E-04 0.306E-04 0.558E-05 ort(H,U,f) = 0.282E-04-0.233E-04-0.361E-05
CGA:  18    -0.118583610402E+04   -0.11869E-04   -0.11840E-04  2944   0.720E-04 0.127E-05
 gam= 0.593 trial= 0.152  step= 0.198 mean= 0.152
 gam= 1.107 g(H,U,f)=  0.256E-04 0.420E-04 0.121E-04 ort(H,U,f) = 0.237E-04-0.197E-04-0.433E-05
CGA:  19    -0.118583611122E+04   -0.72023E-05   -0.72092E-05  2944   0.796E-04-0.294E-06
 gam= 1.107 trial= 0.154  step= 0.113 mean= 0.154
 final diagonalization
   8 F= -.11858361E+04 E0= -.11858188E+04  d E =-.700173E-02  mag=   118.0000
quench:  g(F)=  0.000E+00 g(S)=  0.000E+00 dE (1.order)= 0.000E+00
 bond charge predicted
 wavefunctions rotated
       N       E                     dE             d eps       ncg     rms          ort
 gam= 0.000 g(H,U,f)=  0.107E+01 0.665E+00 0.341E+00 ort(H,U,f) = 0.000E+00 0.000E+00 0.000E+00
SDA:   1    -0.118547578684E+04    0.36032E+00    0.00000E+00  2944   0.208E+01 0.000E+00
 gam= 0.000 trial= 0.152  step= 0.081 mean= 0.152
 gam= 0.810 g(H,U,f)=  0.739E+00 0.592E+00 0.353E+00 ort(H,U,f) = 0.758E+00-0.528E+00-0.340E+00
CGA:   2    -0.118554964577E+04   -0.73859E-01   -0.84402E-01  2944   0.168E+01-0.110E+00
 gam= 0.810 trial= 0.148  step= 0.237 mean= 0.148
 gam= 0.464 g(H,U,f)=  0.358E+00 0.361E+00 0.615E-01 ort(H,U,f) = 0.123E+00-0.157E+00-0.321E-01
CGA:   3    -0.118573540190E+04   -0.18576E+00   -0.18906E+00  2944   0.780E+00-0.657E-01
 gam= 0.464 trial= 0.153  step= 0.108 mean= 0.153
 gam= 0.648 g(H,U,f)=  0.224E+00 0.214E+00 0.682E-01 ort(H,U,f) = 0.208E+00-0.167E+00-0.350E-01
CGA:   4    -0.118577425817E+04   -0.38856E-01   -0.40472E-01  2944   0.505E+00 0.649E-02
 gam= 0.648 trial= 0.151  step= 0.134 mean= 0.151
 gam= 0.851 g(H,U,f)=  0.111E+00 0.216E+00 0.103E+00 ort(H,U,f) = 0.166E+00-0.113E+00-0.582E-01
CGA:   5    -0.118580851419E+04   -0.34256E-01   -0.34138E-01  2944   0.430E+00-0.528E-02
 gam= 0.851 trial= 0.150  step= 0.100 mean= 0.150
 gam= 0.257 g(H,U,f)=  0.505E-01 0.437E-01 0.166E-01 ort(H,U,f) = 0.581E-01-0.382E-01-0.199E-01
CGA:   6    -0.118582932382E+04   -0.20810E-01   -0.21241E-01  2944   0.111E+00 0.992E-04
 gam= 0.257 trial= 0.147  step= 0.131 mean= 0.147
 gam= 0.679 g(H,U,f)=  0.257E-01 0.358E-01 0.137E-01 ort(H,U,f) = 0.307E-01-0.226E-01-0.931E-02
CGA:   7    -0.118583659874E+04   -0.72749E-02   -0.72484E-02  2944   0.752E-01-0.121E-02
 gam= 0.679 trial= 0.146  step= 0.108 mean= 0.146
 gam= 0.608 g(H,U,f)=  0.132E-01 0.238E-01 0.867E-02 ort(H,U,f) = 0.200E-01-0.142E-01-0.569E-02
CGA:   8    -0.118584061382E+04   -0.40151E-02   -0.40313E-02  2944   0.457E-01 0.149E-03
 gam= 0.608 trial= 0.144  step= 0.111 mean= 0.144
 gam= 0.356 g(H,U,f)=  0.577E-02 0.823E-02 0.225E-02 ort(H,U,f) = 0.817E-02-0.541E-02-0.270E-02
CGA:   9    -0.118584314600E+04   -0.25322E-02   -0.25361E-02  2944   0.162E-01 0.528E-04
 gam= 0.356 trial= 0.143  step= 0.131 mean= 0.143
 gam= 0.537 g(H,U,f)=  0.302E-02 0.413E-02 0.158E-02 ort(H,U,f) = 0.331E-02-0.226E-02-0.910E-03
CGA:  10    -0.118584420800E+04   -0.10620E-02   -0.10641E-02  2944   0.873E-02 0.144E-03
 gam= 0.537 trial= 0.142  step= 0.100 mean= 0.142
 gam= 0.753 g(H,U,f)=  0.210E-02 0.331E-02 0.117E-02 ort(H,U,f) = 0.271E-02-0.177E-02-0.949E-03
CGA:  11    -0.118584465092E+04   -0.44292E-03   -0.44142E-03  2944   0.658E-02-0.111E-04
 gam= 0.753 trial= 0.140  step= 0.177 mean= 0.140
 gam= 0.491 g(H,U,f)=  0.110E-02 0.167E-02 0.462E-03 ort(H,U,f) = 0.965E-03-0.639E-03-0.296E-03
CGA:  12    -0.118584523437E+04   -0.58346E-03   -0.58265E-03  2944   0.323E-02 0.298E-04
 gam= 0.491 trial= 0.142  step= 0.125 mean= 0.142
 gam= 0.863 g(H,U,f)=  0.769E-03 0.139E-02 0.628E-03 ort(H,U,f) = 0.695E-03-0.377E-03-0.328E-03
CGA:  13    -0.118584543775E+04   -0.20337E-03   -0.20321E-03  2944   0.279E-02-0.983E-05
 gam= 0.863 trial= 0.141  step= 0.109 mean= 0.141
 gam= 0.521 g(H,U,f)=  0.571E-03 0.713E-03 0.168E-03 ort(H,U,f) = 0.567E-03-0.378E-03-0.186E-03
CGA:  14    -0.118584558891E+04   -0.15117E-03   -0.15135E-03  2944   0.145E-02 0.309E-05
 gam= 0.521 trial= 0.140  step= 0.196 mean= 0.140
 gam= 1.105 g(H,U,f)=  0.434E-03 0.924E-03 0.247E-03 ort(H,U,f) = 0.343E-03-0.259E-03-0.816E-04
CGA:  15    -0.118584573161E+04   -0.14270E-03   -0.14263E-03  2944   0.160E-02 0.240E-05
 gam= 1.105 trial= 0.142  step= 0.122 mean= 0.142
 gam= 0.608 g(H,U,f)=  0.327E-03 0.469E-03 0.180E-03 ort(H,U,f) = 0.296E-03-0.174E-03-0.118E-03
CGA:  16    -0.118584582954E+04   -0.97927E-04   -0.97961E-04  2944   0.975E-03 0.311E-05
 gam= 0.608 trial= 0.141  step= 0.116 mean= 0.141
 gam= 0.801 g(H,U,f)=  0.268E-03 0.340E-03 0.173E-03 ort(H,U,f) = 0.285E-03-0.180E-03-0.104E-03
CGA:  17    -0.118584588624E+04   -0.56704E-04   -0.56690E-04  2944   0.781E-03 0.650E-06
 gam= 0.801 trial= 0.140  step= 0.172 mean= 0.140
 gam= 0.595 g(H,U,f)=  0.202E-03 0.184E-03 0.795E-04 ort(H,U,f) = 0.194E-03-0.127E-03-0.608E-04
CGA:  18    -0.118584595372E+04   -0.67481E-04   -0.67358E-04  2944   0.465E-03 0.684E-05
 gam= 0.595 trial= 0.142  step= 0.167 mean= 0.142
 gam= 1.539 g(H,U,f)=  0.151E-03 0.387E-03 0.177E-03 ort(H,U,f) = 0.180E-03-0.118E-03-0.627E-04
CGA:  19    -0.118584599290E+04   -0.39180E-04   -0.39197E-04  2944   0.716E-03-0.102E-05
 gam= 1.539 trial= 0.143  step= 0.109 mean= 0.143
 gam= 0.270 g(H,U,f)=  0.970E-04 0.813E-04 0.152E-04 ort(H,U,f) = 0.149E-03-0.123E-03-0.258E-04
CGA:  20    -0.118584603189E+04   -0.38992E-04   -0.38993E-04  2944   0.193E-03-0.242E-07
 gam= 0.270 trial= 0.141  step= 0.201 mean= 0.141
 gam= 1.305 g(H,U,f)=  0.671E-04 0.146E-03 0.395E-04 ort(H,U,f) = 0.737E-04-0.625E-04-0.113E-04
CGA:  21    -0.118584605130E+04   -0.19406E-04   -0.19407E-04  2944   0.253E-03-0.114E-06
 gam= 1.305 trial= 0.144  step= 0.108 mean= 0.144
 gam= 0.638 g(H,U,f)=  0.491E-04 0.772E-04 0.348E-04 ort(H,U,f) = 0.790E-04-0.552E-04-0.239E-04
CGA:  22    -0.118584606497E+04   -0.13666E-04   -0.13667E-04  2944   0.161E-03-0.137E-06
 gam= 0.638 trial= 0.142  step= 0.142 mean= 0.142
 gam= 0.658 g(H,U,f)=  0.322E-04 0.545E-04 0.193E-04 ort(H,U,f) = 0.409E-04-0.288E-04-0.135E-04
CGA:  23    -0.118584607641E+04   -0.11447E-04   -0.11446E-04  2944   0.106E-03-0.146E-05
 gam= 0.658 trial= 0.142  step= 0.134 mean= 0.142
 gam= 0.594 g(H,U,f)=  0.237E-04 0.308E-04 0.839E-05 ort(H,U,f) = 0.259E-04-0.188E-04-0.685E-05
CGA:  24    -0.118584608342E+04   -0.70084E-05   -0.70099E-05  2944   0.629E-04 0.276E-06
 gam= 0.594 trial= 0.142  step= 0.148 mean= 0.142
 final diagonalization
   9 F= -.11858461E+04 E0= -.11858286E+04  d E =-.997220E-02  mag=   118.0000
quench:  g(F)=  0.000E+00 g(S)=  0.000E+00 dE (1.order)= 0.000E+00
 bond charge predicted
 wavefunctions rotated
       N       E                     dE             d eps       ncg     rms          ort
 gam= 0.000 g(H,U,f)=  0.425E+01 0.249E+00 0.336E-01 ort(H,U,f) = 0.000E+00 0.000E+00 0.000E+00
SDA:   1    -0.118439706544E+04    0.14490E+01    0.00000E+00  2944   0.453E+01 0.000E+00
 gam= 0.000 trial= 0.142  step= 0.331 mean= 0.142
 gam= 1.118 g(H,U,f)=  0.177E+01 0.251E+01 0.785E+00 ort(H,U,f) = 0.102E+01-0.628E+00-0.164E+00
CGA:   2    -0.118516691953E+04   -0.76985E+00   -0.74999E+00  2944   0.507E+01 0.226E+00
 gam= 1.118 trial= 0.152  step= 0.110 mean= 0.152
 gam= 0.399 g(H,U,f)=  0.119E+01 0.572E+00 0.264E+00 ort(H,U,f) = 0.986E+00-0.812E+00-0.315E+00
CGA:   3    -0.118548046212E+04   -0.31354E+00   -0.29205E+00  2944   0.202E+01-0.141E+00
 gam= 0.399 trial= 0.150  step= 0.155 mean= 0.150
 gam= 1.311 g(H,U,f)=  0.631E+00 0.154E+01 0.475E+00 ort(H,U,f) = 0.736E+00-0.458E+00-0.176E+00
CGA:   4    -0.118563313391E+04   -0.15267E+00   -0.15217E+00  2944   0.265E+01 0.101E+00
 gam= 1.311 trial= 0.150  step= 0.099 mean= 0.150
 gam= 0.184 g(H,U,f)=  0.273E+00 0.165E+00 0.484E-01 ort(H,U,f) = 0.357E+00-0.266E+00-0.924E-01
CGA:   5    -0.118577110308E+04   -0.13797E+00   -0.13752E+00  2944   0.486E+00-0.154E-02
 gam= 0.184 trial= 0.147  step= 0.169 mean= 0.147
 gam= 0.990 g(H,U,f)=  0.133E+00 0.256E+00 0.928E-01 ort(H,U,f) = 0.140E+00-0.114E+00-0.336E-01
CGA:   6    -0.118581198257E+04   -0.40879E-01   -0.41006E-01  2944   0.482E+00-0.728E-02
 gam= 0.990 trial= 0.148  step= 0.087 mean= 0.148
 gam= 0.433 g(H,U,f)=  0.665E-01 0.973E-01 0.450E-01 ort(H,U,f) = 0.117E+00-0.723E-01-0.404E-01
CGA:   7    -0.118583320207E+04   -0.21220E-01   -0.20586E-01  2944   0.209E+00 0.414E-02
 gam= 0.433 trial= 0.145  step= 0.120 mean= 0.145
 gam= 0.318 g(H,U,f)=  0.283E-01 0.277E-01 0.105E-01 ort(H,U,f) = 0.344E-01-0.195E-01-0.132E-01
CGA:   8    -0.118584580080E+04   -0.12599E-01   -0.12673E-01  2944   0.664E-01 0.176E-02
 gam= 0.318 trial= 0.144  step= 0.131 mean= 0.144
 gam= 0.772 g(H,U,f)=  0.161E-01 0.258E-01 0.937E-02 ort(H,U,f) = 0.188E-01-0.138E-01-0.558E-02
CGA:   9    -0.118585021062E+04   -0.44098E-02   -0.44010E-02  2944   0.513E-01-0.571E-03
 gam= 0.772 trial= 0.143  step= 0.118 mean= 0.143
 gam= 0.793 g(H,U,f)=  0.102E-01 0.244E-01 0.613E-02 ort(H,U,f) = 0.135E-01-0.926E-02-0.404E-02
CGA:  10    -0.118585319994E+04   -0.29893E-02   -0.29963E-02  2944   0.407E-01 0.149E-03
 gam= 0.793 trial= 0.142  step= 0.110 mean= 0.142
 gam= 0.333 g(H,U,f)=  0.574E-02 0.621E-02 0.159E-02 ort(H,U,f) = 0.598E-02-0.470E-02-0.143E-02
CGA:  11    -0.118585546274E+04   -0.22628E-02   -0.22518E-02  2944   0.135E-01-0.154E-03
 gam= 0.333 trial= 0.141  step= 0.167 mean= 0.141
 gam= 0.969 g(H,U,f)=  0.374E-02 0.656E-02 0.282E-02 ort(H,U,f) = 0.329E-02-0.192E-02-0.135E-02
CGA:  12    -0.118585658921E+04   -0.11265E-02   -0.11261E-02  2944   0.131E-01 0.168E-04
 gam= 0.969 trial= 0.142  step= 0.109 mean= 0.142
 gam= 0.770 g(H,U,f)=  0.286E-02 0.530E-02 0.195E-02 ort(H,U,f) = 0.315E-02-0.194E-02-0.123E-02
CGA:  13    -0.118585730801E+04   -0.71880E-03   -0.71728E-03  2944   0.101E-01-0.187E-04
 gam= 0.770 trial= 0.140  step= 0.131 mean= 0.140
 gam= 0.520 g(H,U,f)=  0.208E-02 0.243E-02 0.741E-03 ort(H,U,f) = 0.172E-02-0.104E-02-0.652E-03
CGA:  14    -0.118585797083E+04   -0.66282E-03   -0.66308E-03  2944   0.526E-02 0.314E-04
 gam= 0.520 trial= 0.140  step= 0.179 mean= 0.140
 gam= 0.940 g(H,U,f)=  0.159E-02 0.226E-02 0.109E-02 ort(H,U,f) = 0.116E-02-0.731E-03-0.448E-03
CGA:  15    -0.118585844272E+04   -0.47189E-03   -0.47242E-03  2944   0.494E-02-0.179E-04
 gam= 0.940 trial= 0.142  step= 0.105 mean= 0.142
 gam= 0.854 g(H,U,f)=  0.137E-02 0.206E-02 0.785E-03 ort(H,U,f) = 0.150E-02-0.947E-03-0.542E-03
CGA:  16    -0.118585870161E+04   -0.25889E-03   -0.25953E-03  2944   0.422E-02 0.135E-04
 gam= 0.854 trial= 0.140  step= 0.173 mean= 0.140
 gam= 0.627 g(H,U,f)=  0.100E-02 0.127E-02 0.369E-03 ort(H,U,f) = 0.950E-03-0.680E-03-0.259E-03
CGA:  17    -0.118585906700E+04   -0.36539E-03   -0.36521E-03  2944   0.264E-02 0.114E-04
 gam= 0.627 trial= 0.142  step= 0.138 mean= 0.142
 gam= 0.838 g(H,U,f)=  0.748E-03 0.116E-02 0.304E-03 ort(H,U,f) = 0.844E-03-0.690E-03-0.150E-03
CGA:  18    -0.118585924934E+04   -0.18234E-03   -0.18235E-03  2944   0.222E-02 0.452E-05
 gam= 0.838 trial= 0.141  step= 0.134 mean= 0.141
 gam= 0.969 g(H,U,f)=  0.555E-03 0.108E-02 0.513E-03 ort(H,U,f) = 0.788E-03-0.535E-03-0.259E-03
CGA:  19    -0.118585939848E+04   -0.14914E-03   -0.14910E-03  2944   0.215E-02-0.541E-05
 gam= 0.969 trial= 0.141  step= 0.111 mean= 0.141
 gam= 0.400 g(H,U,f)=  0.385E-03 0.385E-03 0.885E-04 ort(H,U,f) = 0.606E-03-0.496E-03-0.109E-03
CGA:  20    -0.118585951690E+04   -0.11842E-03   -0.11851E-03  2944   0.859E-03 0.191E-05
 gam= 0.400 trial= 0.140  step= 0.229 mean= 0.140
 gam= 1.253 g(H,U,f)=  0.236E-03 0.575E-03 0.265E-03 ort(H,U,f) = 0.269E-03-0.197E-03-0.762E-04
CGA:  21    -0.118585961525E+04   -0.98348E-04   -0.98558E-04  2944   0.108E-02-0.452E-05
 gam= 1.253 trial= 0.144  step= 0.083 mean= 0.144
 gam= 0.453 g(H,U,f)=  0.185E-03 0.246E-03 0.556E-04 ort(H,U,f) = 0.300E-03-0.226E-03-0.742E-04
CGA:  22    -0.118585965936E+04   -0.44116E-04   -0.44184E-04  2944   0.487E-03-0.222E-06
 gam= 0.453 trial= 0.141  step= 0.177 mean= 0.141
 gam= 0.894 g(H,U,f)=  0.134E-03 0.253E-03 0.488E-04 ort(H,U,f) = 0.150E-03-0.129E-03-0.212E-04
CGA:  23    -0.118585970247E+04   -0.43108E-04   -0.43126E-04  2944   0.436E-03-0.657E-06
 gam= 0.894 trial= 0.143  step= 0.160 mean= 0.143
 gam= 0.874 g(H,U,f)=  0.948E-04 0.209E-03 0.764E-04 ort(H,U,f) = 0.107E-03-0.732E-04-0.332E-04
CGA:  24    -0.118585973738E+04   -0.34911E-04   -0.34905E-04  2944   0.381E-03 0.609E-06
 gam= 0.874 trial= 0.144  step= 0.100 mean= 0.144
 gam= 0.621 g(H,U,f)=  0.737E-04 0.112E-03 0.510E-04 ort(H,U,f) = 0.887E-04-0.520E-04-0.365E-04
CGA:  25    -0.118585975650E+04   -0.19114E-04   -0.19107E-04  2944   0.236E-03 0.146E-06
 gam= 0.621 trial= 0.141  step= 0.140 mean= 0.141
 gam= 0.693 g(H,U,f)=  0.605E-04 0.758E-04 0.276E-04 ort(H,U,f) = 0.591E-04-0.356E-04-0.219E-04
CGA:  26    -0.118585977304E+04   -0.16543E-04   -0.16545E-04  2944   0.164E-03 0.164E-05
 gam= 0.693 trial= 0.141  step= 0.212 mean= 0.141
 gam= 1.101 g(H,U,f)=  0.404E-04 0.100E-03 0.399E-04 ort(H,U,f) = 0.311E-04-0.184E-04-0.139E-04
CGA:  27    -0.118585979046E+04   -0.17419E-04   -0.17461E-04  2944   0.181E-03-0.120E-05
 gam= 1.101 trial= 0.145  step= 0.086 mean= 0.145
 gam= 0.478 g(H,U,f)=  0.316E-04 0.411E-04 0.137E-04 ort(H,U,f) = 0.348E-04-0.226E-04-0.125E-04
CGA:  28    -0.118585979813E+04   -0.76709E-05   -0.76670E-05  2944   0.864E-04-0.242E-06
 gam= 0.478 trial= 0.142  step= 0.153 mean= 0.142
 final diagonalization
  10 F= -.11858598E+04 E0= -.11858420E+04  d E =-.137147E-01  mag=   118.0000
quench:  g(F)=  0.000E+00 g(S)=  0.000E+00 dE (1.order)= 0.000E+00
 bond charge predicted
 wavefunctions rotated
       N       E                     dE             d eps       ncg     rms          ort
 gam= 0.000 g(H,U,f)=  0.185E+02 0.347E+01 0.115E+01 ort(H,U,f) = 0.000E+00 0.000E+00 0.000E+00
SDA:   1    -0.117766954833E+04    0.81902E+01    0.00000E+00  2944   0.232E+02 0.000E+00
 gam= 0.000 trial= 0.142  step= 0.192 mean= 0.142
 gam= 1.413 g(H,U,f)=  0.120E+02 0.161E+02 0.465E+01 ort(H,U,f) = 0.118E+02-0.553E+01-0.159E+01
CGA:   2    -0.118006161165E+04   -0.23921E+01   -0.22290E+01  2944   0.327E+02 0.470E+01
 gam= 1.413 trial= 0.145  step= 0.144 mean= 0.145
 gam= 1.229 g(H,U,f)=  0.581E+01 0.238E+02 0.106E+02 ort(H,U,f) = 0.945E+01-0.135E+02-0.663E+01
CGA:   3    -0.118291047449E+04   -0.28489E+01   -0.28423E+01  2944   0.402E+02-0.106E+02
 gam= 1.229 trial= 0.145  step= 0.091 mean= 0.145
 gam= 0.251 g(H,U,f)=  0.425E+01 0.447E+01 0.138E+01 ort(H,U,f) =-0.885E+00 0.422E-01 0.633E+00
CGA:   4    -0.118409413880E+04   -0.11837E+01   -0.12337E+01  2944   0.101E+02-0.210E+00
 gam= 0.251 trial= 0.142  step= 0.065 mean= 0.142
 gam= 0.576 g(H,U,f)=  0.300E+01 0.191E+01 0.909E+00 ort(H,U,f) = 0.229E+01-0.202E+01-0.963E+00
CGA:   5    -0.118438137339E+04   -0.28723E+00   -0.32769E+00  2944   0.582E+01-0.691E+00
 gam= 0.576 trial= 0.138  step= 0.147 mean= 0.138
 gam= 0.954 g(H,U,f)=  0.159E+01 0.341E+01 0.552E+00 ort(H,U,f) = 0.160E+01-0.172E+01-0.349E+00
CGA:   6    -0.118477560306E+04   -0.39423E+00   -0.39788E+00  2944   0.555E+01-0.475E+00
 gam= 0.954 trial= 0.139  step= 0.112 mean= 0.139
 gam= 0.455 g(H,U,f)=  0.666E+00 0.115E+01 0.706E+00 ort(H,U,f) = 0.280E+00-0.145E+00-0.141E+00
CGA:   7    -0.118506012835E+04   -0.28453E+00   -0.28460E+00  2944   0.252E+01-0.489E-02
[...]
CGA:   8    -0.118589199742E+04   -0.12549E-02   -0.12540E-02  2944   0.999E-02-0.607E-04
 gam= 0.552 trial= 0.146  step= 0.186 mean= 0.146
 gam= 0.788 g(H,U,f)=  0.169E-02 0.454E-02 0.165E-02 ort(H,U,f) = 0.131E-02-0.863E-03-0.508E-03
CGA:   9    -0.118589291982E+04   -0.92240E-03   -0.92410E-03  2944   0.787E-02-0.565E-04
 gam= 0.788 trial= 0.148  step= 0.062 mean= 0.148
 gam= 0.411 g(H,U,f)=  0.131E-02 0.146E-02 0.462E-03 ort(H,U,f) = 0.126E-02-0.697E-03-0.589E-03
CGA:  10    -0.118589315940E+04   -0.23957E-03   -0.24111E-03  2944   0.324E-02-0.233E-04
 gam= 0.411 trial= 0.144  step= 0.186 mean= 0.144
 gam= 0.622 g(H,U,f)=  0.794E-03 0.103E-02 0.194E-03 ort(H,U,f) = 0.555E-03-0.401E-03-0.142E-03
CGA:  11    -0.118589345944E+04   -0.30005E-03   -0.29972E-03  2944   0.201E-02 0.118E-04
 gam= 0.622 trial= 0.146  step= 0.171 mean= 0.146
 gam= 1.119 g(H,U,f)=  0.500E-03 0.129E-02 0.466E-03 ort(H,U,f) = 0.395E-03-0.249E-03-0.150E-03
CGA:  12    -0.118589363262E+04   -0.17317E-03   -0.17325E-03  2944   0.226E-02-0.415E-05
 gam= 1.119 trial= 0.147  step= 0.090 mean= 0.147
 gam= 0.601 g(H,U,f)=  0.319E-03 0.798E-03 0.238E-03 ort(H,U,f) = 0.285E-03-0.906E-04-0.192E-03
CGA:  13    -0.118589373347E+04   -0.10086E-03   -0.10109E-03  2944   0.135E-02 0.250E-05
 gam= 0.601 trial= 0.144  step= 0.086 mean= 0.144
 gam= 0.332 g(H,U,f)=  0.230E-03 0.203E-03 0.167E-04 ort(H,U,f) = 0.155E-03-0.120E-03-0.311E-04
CGA:  14    -0.118589379197E+04   -0.58494E-04   -0.58593E-04  2944   0.450E-03 0.363E-05
 gam= 0.332 trial= 0.142  step= 0.275 mean= 0.142
 gam= 1.030 g(H,U,f)=  0.148E-03 0.236E-03 0.795E-04 ort(H,U,f) = 0.740E-04-0.504E-04-0.173E-04
CGA:  15    -0.118589385445E+04   -0.62486E-04   -0.62070E-04  2944   0.463E-03 0.628E-05
 gam= 1.030 trial= 0.148  step= 0.089 mean= 0.148
 gam= 0.967 g(H,U,f)=  0.111E-03 0.258E-03 0.788E-04 ort(H,U,f) = 0.127E-03-0.659E-04-0.563E-04
CGA:  16    -0.118589387520E+04   -0.20751E-04   -0.20900E-04  2944   0.448E-03 0.447E-05
 gam= 0.967 trial= 0.145  step= 0.132 mean= 0.145
 gam= 0.258 g(H,U,f)=  0.605E-04 0.451E-04 0.968E-05 ort(H,U,f) = 0.456E-04-0.290E-04-0.869E-05
CGA:  17    -0.118589390488E+04   -0.29678E-04   -0.29733E-04  2944   0.115E-03 0.794E-05
 gam= 0.258 trial= 0.145  step= 0.180 mean= 0.145
 gam= 1.174 g(H,U,f)=  0.414E-04 0.700E-04 0.240E-04 ort(H,U,f) = 0.373E-04-0.245E-04-0.104E-04
CGA:  18    -0.118589391549E+04   -0.10606E-04   -0.10564E-04  2944   0.135E-03 0.236E-05
 gam= 1.174 trial= 0.146  step= 0.121 mean= 0.146
 gam= 0.966 g(H,U,f)=  0.276E-04 0.766E-04 0.267E-04 ort(H,U,f) = 0.394E-04-0.248E-04-0.118E-04
CGA:  19    -0.118589392381E+04   -0.83253E-05   -0.83621E-05  2944   0.131E-03 0.286E-05
 gam= 0.966 trial= 0.145  step= 0.085 mean= 0.145
 final diagonalization
  26 F= -.11858939E+04 E0= -.11858757E+04  d E =-.973526E-02  mag=   118.0000
quench:  g(F)=  0.000E+00 g(S)=  0.000E+00 dE (1.order)= 0.000E+00
 bond charge predicted
 wavefunctions rotated
       N       E                     dE             d eps       ncg     rms          ort
 gam= 0.000 g(H,U,f)=  0.317E-01 0.419E-01 0.773E-02 ort(H,U,f) = 0.000E+00 0.000E+00 0.000E+00
SDA:   1    -0.118588338818E+04    0.10527E-01    0.00000E+00  2944   0.813E-01 0.000E+00
 gam= 0.000 trial= 0.142  step= 0.079 mean= 0.142
 gam= 0.489 g(H,U,f)=  0.216E-01 0.132E-01 0.498E-02 ort(H,U,f) = 0.209E-01-0.162E-01-0.486E-02
CGA:   2    -0.118588659851E+04   -0.32103E-02   -0.32191E-02  2944   0.398E-01-0.101E-03
 gam= 0.489 trial= 0.139  step= 0.144 mean= 0.139
 gam= 1.543 g(H,U,f)=  0.146E-01 0.346E-01 0.122E-01 ort(H,U,f) = 0.188E-01-0.139E-01-0.472E-02
CGA:   3    -0.118588946600E+04   -0.28675E-02   -0.28664E-02  2944   0.614E-01 0.208E-03
 gam= 1.543 trial= 0.139  step= 0.125 mean= 0.139
 gam= 0.225 g(H,U,f)=  0.711E-02 0.580E-02 0.926E-03 ort(H,U,f) = 0.588E-02-0.483E-02-0.123E-02
CGA:   4    -0.118589332880E+04   -0.38628E-02   -0.38605E-02  2944   0.138E-01-0.183E-03
 gam= 0.225 trial= 0.138  step= 0.167 mean= 0.138
 gam= 0.381 g(H,U,f)=  0.321E-02 0.164E-02 0.427E-03 ort(H,U,f) = 0.250E-02-0.201E-02-0.382E-03
CGA:   5    -0.118589448455E+04   -0.11557E-02   -0.11536E-02  2944   0.527E-02 0.103E-03
 gam= 0.381 trial= 0.140  step= 0.190 mean= 0.140
 gam= 1.629 g(H,U,f)=  0.145E-02 0.492E-02 0.221E-02 ort(H,U,f) = 0.160E-02-0.993E-03-0.598E-03
CGA:   6    -0.118589498767E+04   -0.50312E-03   -0.50308E-03  2944   0.858E-02 0.677E-05
 gam= 1.629 trial= 0.142  step= 0.068 mean= 0.142
 gam= 0.154 g(H,U,f)=  0.725E-03 0.529E-03 0.651E-04 ort(H,U,f) = 0.952E-03-0.758E-03-0.180E-03
CGA:   7    -0.118589527775E+04   -0.29008E-03   -0.29118E-03  2944   0.132E-02 0.148E-04
 gam= 0.154 trial= 0.139  step= 0.198 mean= 0.139
 gam= 0.411 g(H,U,f)=  0.294E-03 0.219E-03 0.278E-04 ort(H,U,f) = 0.225E-03-0.190E-03-0.213E-04
CGA:   8    -0.118589540871E+04   -0.13097E-03   -0.13057E-03  2944   0.541E-03 0.139E-04
 gam= 0.411 trial= 0.142  step= 0.194 mean= 0.142
 gam= 1.157 g(H,U,f)=  0.122E-03 0.329E-03 0.175E-03 ort(H,U,f) = 0.114E-03-0.620E-04-0.448E-04
CGA:   9    -0.118589546195E+04   -0.53236E-04   -0.53032E-04  2944   0.626E-03 0.762E-05
 gam= 1.157 trial= 0.144  step= 0.067 mean= 0.144
 gam= 0.293 g(H,U,f)=  0.751E-04 0.951E-04 0.130E-04 ort(H,U,f) = 0.837E-04-0.523E-04-0.295E-04
CGA:  10    -0.118589548328E+04   -0.21329E-04   -0.21344E-04  2944   0.183E-03 0.187E-05
 gam= 0.293 trial= 0.140  step= 0.142 mean= 0.140
 gam= 0.673 g(H,U,f)=  0.515E-04 0.647E-04 0.701E-05 ort(H,U,f) = 0.398E-04-0.362E-04-0.367E-05
CGA:  11    -0.118589549633E+04   -0.13054E-04   -0.13054E-04  2944   0.123E-03-0.157E-07
 gam= 0.673 trial= 0.140  step= 0.201 mean= 0.140
 gam= 0.874 g(H,U,f)=  0.321E-04 0.573E-04 0.184E-04 ort(H,U,f) = 0.225E-04-0.166E-04-0.636E-05
CGA:  12    -0.118589550867E+04   -0.12343E-04   -0.12355E-04  2944   0.108E-03-0.449E-06
 gam= 0.874 trial= 0.143  step= 0.118 mean= 0.143
 gam= 0.841 g(H,U,f)=  0.233E-04 0.464E-04 0.209E-04 ort(H,U,f) = 0.179E-04-0.649E-05-0.117E-04
CGA:  13    -0.118589551503E+04   -0.63540E-05   -0.63508E-05  2944   0.905E-04-0.287E-06
 gam= 0.841 trial= 0.142  step= 0.089 mean= 0.142
 final diagonalization
  27 F= -.11858955E+04 E0= -.11858773E+04  d E =-.159121E-02  mag=   118.0000
quench:  g(F)=  0.000E+00 g(S)=  0.000E+00 dE (1.order)= 0.000E+00
 bond charge predicted
 wavefunctions rotated
       N       E                     dE             d eps       ncg     rms          ort
 gam= 0.000 g(H,U,f)=  0.150E+01 0.133E+00 0.287E-01 ort(H,U,f) = 0.000E+00 0.000E+00 0.000E+00
SDA:   1    -0.118535073272E+04    0.54478E+00    0.00000E+00  2944   0.166E+01 0.000E+00
 gam= 0.000 trial= 0.140  step= 0.247 mean= 0.140
 gam= 2.779 g(H,U,f)=  0.781E+00 0.247E+01 0.136E+01 ort(H,U,f) = 0.682E+00-0.454E+00-0.222E+00
CGA:   2    -0.118555633476E+04   -0.20560E+00   -0.20539E+00  2944   0.461E+01 0.583E-02
 gam= 2.779 trial= 0.145  step= 0.080 mean= 0.145
 gam= 0.216 g(H,U,f)=  0.586E+00 0.281E+00 0.130E+00 ort(H,U,f) = 0.317E+00-0.248E+00-0.162E+00
CGA:   3    -0.118573334849E+04   -0.17701E+00   -0.18578E+00  2944   0.997E+00-0.937E-01
 gam= 0.216 trial= 0.142  step= 0.153 mean= 0.142
 gam= 0.726 g(H,U,f)=  0.324E+00 0.325E+00 0.741E-01 ort(H,U,f) = 0.263E+00-0.242E+00-0.660E-01
CGA:   4    -0.118580747832E+04   -0.74130E-01   -0.74562E-01  2944   0.723E+00-0.447E-01
 gam= 0.726 trial= 0.142  step= 0.159 mean= 0.142
 gam= 0.387 g(H,U,f)=  0.123E+00 0.136E+00 0.210E-01 ort(H,U,f) = 0.998E-01-0.848E-01-0.105E-01
CGA:   5    -0.118586257827E+04   -0.55100E-01   -0.55038E-01  2944   0.280E+00 0.452E-02
 gam= 0.387 trial= 0.143  step= 0.110 mean= 0.143
 gam= 0.783 g(H,U,f)=  0.679E-01 0.107E+00 0.440E-01 ort(H,U,f) = 0.685E-01-0.472E-01-0.226E-01
CGA:   6    -0.118587817662E+04   -0.15598E-01   -0.15483E-01  2944   0.219E+00-0.138E-02
 gam= 0.783 trial= 0.141  step= 0.082 mean= 0.141
 gam= 0.402 g(H,U,f)=  0.386E-01 0.384E-01 0.111E-01 ort(H,U,f) = 0.520E-01-0.409E-01-0.126E-01
CGA:   7    -0.118588690872E+04   -0.87321E-02   -0.89491E-02  2944   0.881E-01-0.158E-02
 gam= 0.402 trial= 0.138  step= 0.174 mean= 0.138
 gam= 0.351 g(H,U,f)=  0.138E-01 0.134E-01 0.365E-02 ort(H,U,f) = 0.106E-01-0.758E-02-0.349E-02
CGA:   8    -0.118589452705E+04   -0.76183E-02   -0.76305E-02  2944   0.309E-01-0.468E-03
 gam= 0.351 trial= 0.140  step= 0.159 mean= 0.140
 gam= 0.369 g(H,U,f)=  0.585E-02 0.459E-02 0.963E-03 ort(H,U,f) = 0.436E-02-0.335E-02-0.107E-02
CGA:   9    -0.118589697453E+04   -0.24475E-02   -0.24485E-02  2944   0.114E-01-0.600E-04
 gam= 0.369 trial= 0.141  step= 0.182 mean= 0.141
 gam= 1.369 g(H,U,f)=  0.326E-02 0.857E-02 0.377E-02 ort(H,U,f) = 0.300E-02-0.201E-02-0.103E-02
CGA:  10    -0.118589800937E+04   -0.10348E-02   -0.10361E-02  2944   0.156E-01-0.447E-04
 gam= 1.369 trial= 0.143  step= 0.072 mean= 0.143
 gam= 0.360 g(H,U,f)=  0.232E-02 0.281E-02 0.495E-03 ort(H,U,f) = 0.278E-02-0.200E-02-0.838E-03
CGA:  11    -0.118589856398E+04   -0.55461E-03   -0.55813E-03  2944   0.562E-02-0.526E-04
 gam= 0.360 trial= 0.140  step= 0.209 mean= 0.140
 gam= 0.375 g(H,U,f)=  0.117E-02 0.795E-03 0.139E-03 ort(H,U,f) = 0.376E-03-0.284E-03-0.113E-03
CGA:  12    -0.118589914816E+04   -0.58419E-03   -0.58501E-03  2944   0.211E-02-0.219E-04
 gam= 0.375 trial= 0.143  step= 0.233 mean= 0.143
 gam= 1.315 g(H,U,f)=  0.783E-03 0.150E-02 0.485E-03 ort(H,U,f) = 0.476E-03-0.296E-03-0.168E-03
CGA:  13    -0.118589939375E+04   -0.24559E-03   -0.24512E-03  2944   0.277E-02 0.111E-04
 gam= 1.315 trial= 0.148  step= 0.113 mean= 0.148
 gam= 0.729 g(H,U,f)=  0.557E-03 0.112E-02 0.345E-03 ort(H,U,f) = 0.459E-03-0.257E-03-0.204E-03
CGA:  14    -0.118589955171E+04   -0.15795E-03   -0.15785E-03  2944   0.202E-02-0.118E-05
 gam= 0.729 trial= 0.146  step= 0.092 mean= 0.146
 gam= 0.622 g(H,U,f)=  0.444E-03 0.687E-03 0.125E-03 ort(H,U,f) = 0.383E-03-0.263E-03-0.117E-03
CGA:  15    -0.118589964490E+04   -0.93189E-04   -0.93295E-04  2944   0.126E-02 0.324E-05
 gam= 0.622 trial= 0.143  step= 0.156 mean= 0.143
 gam= 0.489 g(H,U,f)=  0.334E-03 0.255E-03 0.260E-04 ort(H,U,f) = 0.233E-03-0.204E-03-0.256E-04
CGA:  16    -0.118589974316E+04   -0.98266E-04   -0.98250E-04  2944   0.615E-03 0.335E-05
 gam= 0.489 trial= 0.144  step= 0.342 mean= 0.144
 gam= 0.854 g(H,U,f)=  0.204E-03 0.242E-03 0.791E-04 ort(H,U,f) = 0.992E-04-0.708E-04-0.234E-04
CGA:  17    -0.118589984914E+04   -0.10598E-03   -0.10548E-03  2944   0.525E-03 0.499E-05
 gam= 0.854 trial= 0.154  step= 0.100 mean= 0.154
 gam= 0.988 g(H,U,f)=  0.154E-03 0.267E-03 0.973E-04 ort(H,U,f) = 0.176E-03-0.122E-03-0.540E-04
CGA:  18    -0.118589987559E+04   -0.26450E-04   -0.26435E-04  2944   0.519E-03 0.116E-06
 gam= 0.988 trial= 0.151  step= 0.117 mean= 0.151
 gam= 0.489 g(H,U,f)=  0.111E-03 0.113E-03 0.293E-04 ort(H,U,f) = 0.151E-03-0.120E-03-0.303E-04
CGA:  19    -0.118589990583E+04   -0.30237E-04   -0.30257E-04  2944   0.254E-03 0.361E-06
 gam= 0.489 trial= 0.149  step= 0.209 mean= 0.149
 gam= 0.706 g(H,U,f)=  0.692E-04 0.917E-04 0.183E-04 ort(H,U,f) = 0.657E-04-0.570E-04-0.101E-04
CGA:  20    -0.118589993237E+04   -0.26542E-04   -0.26588E-04  2944   0.179E-03-0.144E-05
 gam= 0.706 trial= 0.152  step= 0.169 mean= 0.152
 gam= 0.688 g(H,U,f)=  0.439E-04 0.557E-04 0.236E-04 ort(H,U,f) = 0.440E-04-0.310E-04-0.123E-04
CGA:  21    -0.118589994740E+04   -0.15035E-04   -0.15028E-04  2944   0.123E-03 0.644E-06
 gam= 0.688 trial= 0.153  step= 0.097 mean= 0.153
 gam= 0.886 g(H,U,f)=  0.340E-04 0.609E-04 0.143E-04 ort(H,U,f) = 0.445E-04-0.345E-04-0.103E-04
CGA:  22    -0.118589995342E+04   -0.60161E-05   -0.60054E-05  2944   0.109E-03-0.314E-06
 gam= 0.886 trial= 0.150  step= 0.138 mean= 0.150
 final diagonalization
  28 F= -.11859000E+04 E0= -.11858816E+04  d E =-.443839E-02  mag=   118.0000
quench:  g(F)=  0.000E+00 g(S)=  0.000E+00 dE (1.order)= 0.000E+00
 bond charge predicted
 wavefunctions rotated
       N       E                     dE             d eps       ncg     rms          ort
 gam= 0.000 g(H,U,f)=  0.160E+00 0.129E+00 0.344E-01 ort(H,U,f) = 0.000E+00 0.000E+00 0.000E+00
SDA:   1    -0.118584287635E+04    0.57071E-01    0.00000E+00  2944   0.324E+00 0.000E+00
 gam= 0.000 trial= 0.150  step= 0.095 mean= 0.150
 gam= 0.571 g(H,U,f)=  0.105E+00 0.647E-01 0.157E-01 ort(H,U,f) = 0.103E+00-0.833E-01-0.187E-01
CGA:   2    -0.118585875929E+04   -0.15883E-01   -0.15391E-01  2944   0.185E+00 0.129E-02
 gam= 0.571 trial= 0.147  step= 0.196 mean= 0.147
 gam= 1.983 g(H,U,f)=  0.583E-01 0.209E+00 0.998E-01 ort(H,U,f) = 0.669E-01-0.468E-01-0.225E-01
CGA:   3    -0.118587690294E+04   -0.18144E-01   -0.18224E-01  2944   0.367E+00-0.240E-02
 gam= 1.983 trial= 0.150  step= 0.075 mean= 0.150
 gam= 0.132 g(H,U,f)=  0.359E-01 0.114E-01 0.960E-03 ort(H,U,f) = 0.139E-01-0.141E-01-0.186E-02
CGA:   4    -0.118589029065E+04   -0.13388E-01   -0.13541E-01  2944   0.483E-01-0.211E-02
 gam= 0.132 trial= 0.146  step= 0.227 mean= 0.146
 gam= 0.798 g(H,U,f)=  0.164E-01 0.193E-01 0.283E-02 ort(H,U,f) = 0.123E-01-0.107E-01-0.125E-02
CGA:   5    -0.118589574559E+04   -0.54549E-02   -0.54363E-02  2944   0.385E-01 0.394E-03
 gam= 0.798 trial= 0.150  step= 0.136 mean= 0.150
 gam= 0.860 g(H,U,f)=  0.708E-02 0.182E-01 0.786E-02 ort(H,U,f) = 0.751E-02-0.509E-02-0.265E-02
CGA:   6    -0.118589839106E+04   -0.26455E-02   -0.26421E-02  2944   0.331E-01-0.220E-03
 gam= 0.860 trial= 0.149  step= 0.064 mean= 0.149
 gam= 0.245 g(H,U,f)=  0.454E-02 0.275E-02 0.835E-03 ort(H,U,f) = 0.444E-02-0.309E-02-0.158E-02
CGA:   7    -0.118589943472E+04   -0.10437E-02   -0.10540E-02  2944   0.812E-02-0.233E-03
 gam= 0.245 trial= 0.145  step= 0.177 mean= 0.145
 gam= 0.563 g(H,U,f)=  0.191E-02 0.229E-02 0.373E-03 ort(H,U,f) = 0.170E-02-0.146E-02-0.320E-03
CGA:   8    -0.118590014583E+04   -0.71111E-03   -0.71285E-03  2944   0.457E-02-0.836E-04
 gam= 0.563 trial= 0.146  step= 0.173 mean= 0.146
 gam= 0.439 g(H,U,f)=  0.694E-03 0.104E-02 0.277E-03 ort(H,U,f) = 0.411E-03-0.363E-03-0.772E-04
CGA:   9    -0.118590053672E+04   -0.39089E-03   -0.39133E-03  2944   0.201E-02-0.287E-04
 gam= 0.439 trial= 0.148  step= 0.089 mean= 0.148
 gam= 0.648 g(H,U,f)=  0.451E-03 0.582E-03 0.269E-03 ort(H,U,f) = 0.434E-03-0.225E-03-0.212E-03
CGA:  10    -0.118590062539E+04   -0.88665E-04   -0.88812E-04  2944   0.130E-02-0.239E-05
 gam= 0.648 trial= 0.145  step= 0.106 mean= 0.145
 gam= 0.732 g(H,U,f)=  0.296E-03 0.547E-03 0.109E-03 ort(H,U,f) = 0.334E-03-0.260E-03-0.756E-04
CGA:  11    -0.118590069409E+04   -0.68701E-04   -0.68654E-04  2944   0.952E-03-0.124E-05
 gam= 0.732 trial= 0.143  step= 0.142 mean= 0.143
 gam= 0.429 g(H,U,f)=  0.184E-03 0.194E-03 0.309E-04 ort(H,U,f) = 0.135E-03-0.105E-03-0.310E-04
CGA:  12    -0.118590076161E+04   -0.67521E-04   -0.67521E-04  2944   0.409E-03-0.967E-06
 gam= 0.429 trial= 0.143  step= 0.233 mean= 0.143
 gam= 0.469 g(H,U,f)=  0.962E-04 0.778E-04 0.178E-04 ort(H,U,f) = 0.310E-04-0.159E-04-0.116E-04
CGA:  13    -0.118590080926E+04   -0.47655E-04   -0.47496E-04  2944   0.192E-03 0.340E-05
 gam= 0.469 trial= 0.147  step= 0.208 mean= 0.147
 gam= 1.281 g(H,U,f)=  0.625E-04 0.123E-03 0.604E-04 ort(H,U,f) = 0.357E-04-0.177E-04-0.193E-04
CGA:  14    -0.118590082936E+04   -0.20097E-04   -0.20137E-04  2944   0.246E-03-0.128E-05
 gam= 1.281 trial= 0.150  step= 0.073 mean= 0.150
 gam= 0.555 g(H,U,f)=  0.525E-04 0.722E-04 0.116E-04 ort(H,U,f) = 0.545E-04-0.409E-04-0.141E-04
CGA:  15    -0.118590083833E+04   -0.89694E-05   -0.89577E-05  2944   0.136E-03-0.513E-06
 gam= 0.555 trial= 0.147  step= 0.229 mean= 0.147
 gam= 0.533 g(H,U,f)=  0.326E-04 0.319E-04 0.809E-05 ort(H,U,f) = 0.112E-04-0.916E-05-0.409E-05
CGA:  16    -0.118590085385E+04   -0.15521E-04   -0.15604E-04  2944   0.726E-04-0.201E-05
 gam= 0.533 trial= 0.151  step= 0.160 mean= 0.151
 gam= 0.726 g(H,U,f)=  0.241E-04 0.238E-04 0.475E-05 ort(H,U,f) = 0.165E-04-0.129E-04-0.427E-05
CGA:  17    -0.118590085956E+04   -0.57147E-05   -0.57180E-05  2944   0.527E-04-0.686E-06
 gam= 0.726 trial= 0.151  step= 0.203 mean= 0.151
 final diagonalization
  29 F= -.11859009E+04 E0= -.11858826E+04  d E =-.906144E-03  mag=   118.0000
quench:  g(F)=  0.000E+00 g(S)=  0.000E+00 dE (1.order)= 0.000E+00
 bond charge predicted
 wavefunctions rotated
       N       E                     dE             d eps       ncg     rms          ort
 gam= 0.000 g(H,U,f)=  0.479E-01 0.144E+00 0.472E-01 ort(H,U,f) = 0.000E+00 0.000E+00 0.000E+00
SDA:   1    -0.118588375126E+04    0.17103E-01    0.00000E+00  2944   0.240E+00 0.000E+00
 gam= 0.000 trial= 0.154  step= 0.048 mean= 0.154
 gam= 0.204 g(H,U,f)=  0.301E-01 0.121E-01 0.658E-02 ort(H,U,f) = 0.298E-01-0.223E-01-0.139E-01
CGA:   2    -0.118588924604E+04   -0.54948E-02   -0.56911E-02  2944   0.489E-01-0.650E-02
 gam= 0.204 trial= 0.148  step= 0.163 mean= 0.148
 gam= 1.221 g(H,U,f)=  0.191E-01 0.316E-01 0.899E-02 ort(H,U,f) = 0.205E-01-0.160E-01-0.475E-02
CGA:   3    -0.118589310761E+04   -0.38616E-02   -0.38652E-02  2944   0.597E-01-0.275E-03
 gam= 1.221 trial= 0.149  step= 0.174 mean= 0.149
 gam= 0.287 g(H,U,f)=  0.822E-02 0.724E-02 0.164E-02 ort(H,U,f) = 0.537E-02-0.402E-02-0.110E-02
CGA:   4    -0.118589828474E+04   -0.51771E-02   -0.51729E-02  2944   0.171E-01 0.237E-03
 gam= 0.287 trial= 0.150  step= 0.106 mean= 0.150
 gam= 0.868 g(H,U,f)=  0.532E-02 0.664E-02 0.287E-02 ort(H,U,f) = 0.563E-02-0.420E-02-0.144E-02
CGA:   5    -0.118589919768E+04   -0.91293E-03   -0.91081E-03  2944   0.148E-01-0.939E-05
 gam= 0.868 trial= 0.148  step= 0.105 mean= 0.148
 gam= 0.627 g(H,U,f)=  0.283E-02 0.469E-02 0.179E-02 ort(H,U,f) = 0.448E-02-0.312E-02-0.136E-02
CGA:   6    -0.118589997669E+04   -0.77902E-03   -0.78112E-03  2944   0.931E-02 0.502E-05
 gam= 0.627 trial= 0.146  step= 0.139 mean= 0.146
 gam= 0.235 g(H,U,f)=  0.110E-02 0.874E-03 0.219E-03 ort(H,U,f) = 0.116E-02-0.863E-03-0.331E-03
CGA:   7    -0.118590062552E+04   -0.64883E-03   -0.64865E-03  2944   0.219E-02-0.309E-04
 gam= 0.235 trial= 0.146  step= 0.150 mean= 0.146
 gam= 1.012 g(H,U,f)=  0.559E-03 0.119E-02 0.473E-03 ort(H,U,f) = 0.589E-03-0.454E-03-0.148E-03
CGA:   8    -0.118590078975E+04   -0.16423E-03   -0.16427E-03  2944   0.222E-02-0.129E-04
 gam= 1.012 trial= 0.146  step= 0.076 mean= 0.146
 gam= 0.371 g(H,U,f)=  0.320E-03 0.371E-03 0.132E-03 ort(H,U,f) = 0.502E-03-0.331E-03-0.176E-03
CGA:   9    -0.118590087342E+04   -0.83671E-04   -0.83307E-04  2944   0.822E-03-0.468E-05
 gam= 0.371 trial= 0.142  step= 0.170 mean= 0.142
 gam= 0.455 g(H,U,f)=  0.125E-03 0.189E-03 0.608E-04 ort(H,U,f) = 0.120E-03-0.810E-04-0.423E-04
CGA:  10    -0.118590094322E+04   -0.69801E-04   -0.69834E-04  2944   0.374E-03-0.280E-05
 gam= 0.455 trial= 0.144  step= 0.122 mean= 0.144
 gam= 0.670 g(H,U,f)=  0.800E-04 0.127E-03 0.435E-04 ort(H,U,f) = 0.741E-04-0.498E-04-0.267E-04
CGA:  11    -0.118590096594E+04   -0.22713E-04   -0.22683E-04  2944   0.251E-03-0.233E-05
 gam= 0.670 trial= 0.143  step= 0.103 mean= 0.143
 gam= 0.818 g(H,U,f)=  0.582E-04 0.109E-03 0.385E-04 ort(H,U,f) = 0.709E-04-0.434E-04-0.272E-04
CGA:  12    -0.118590097880E+04   -0.12857E-04   -0.12862E-04  2944   0.205E-03 0.247E-06
 gam= 0.818 trial= 0.141  step= 0.130 mean= 0.141
 gam= 0.615 g(H,U,f)=  0.431E-04 0.764E-04 0.665E-05 ort(H,U,f) = 0.457E-04-0.384E-04-0.653E-05
CGA:  13    -0.118590099214E+04   -0.13347E-04   -0.13350E-04  2944   0.126E-03 0.694E-06
 gam= 0.615 trial= 0.140  step= 0.195 mean= 0.140
 gam= 0.511 g(H,U,f)=  0.263E-04 0.316E-04 0.652E-05 ort(H,U,f) = 0.132E-04-0.106E-04-0.171E-05
CGA:  14    -0.118590100449E+04   -0.12347E-04   -0.12323E-04  2944   0.644E-04 0.880E-06
 gam= 0.511 trial= 0.143  step= 0.108 mean= 0.143
 gam= 1.218 g(H,U,f)=  0.220E-04 0.388E-04 0.177E-04 ort(H,U,f) = 0.213E-04-0.124E-04-0.927E-05
CGA:  15    -0.118590100799E+04   -0.35051E-05   -0.34990E-05  2944   0.785E-04-0.334E-06
 gam= 1.218 trial= 0.141  step= 0.150 mean= 0.141
 final diagonalization
  30 F= -.11859010E+04 E0= -.11858828E+04  d E =-.148430E-03  mag=   118.0000
quench:  g(F)=  0.000E+00 g(S)=  0.000E+00 dE (1.order)= 0.000E+00
 reached required accuracy - stopping structural energy minimisation
