       N       E                     dE             d eps       ncg     rms          ort
DAV:   1     0.137358480928E+05    0.13736E+05   -0.62391E+05  2944   0.167E+03
DAV:   2     0.509124713698E+03   -0.13227E+05   -0.12228E+05  2944   0.465E+02
DAV:   3    -0.126378176606E+04   -0.17729E+04   -0.17387E+04  2944   0.182E+02
DAV:   4    -0.134433929912E+04   -0.80558E+02   -0.79465E+02  2944   0.386E+01
DAV:   5    -0.134884326260E+04   -0.45040E+01   -0.44817E+01  2944   0.696E+00
SDA:   6    -0.853987612085E+03    0.49486E+03   -0.44817E+01  2944   0.212E+04 0.000E+00
CGA:   7    -0.112353696818E+04   -0.26955E+03   -0.28909E+03  2944   0.443E+03 0.662E+02
CGA:   8    -0.114379929923E+04   -0.20262E+02   -0.47375E+02  2944   0.184E+03-0.992E+01
CGA:   9    -0.114856243353E+04   -0.47631E+01   -0.98996E+01  2944   0.162E+03-0.126E+01
CGA:  10    -0.116381696806E+04   -0.15255E+02   -0.96844E+01  2944   0.223E+03 0.779E+01
CGA:  11    -0.116545190923E+04   -0.16349E+01   -0.14739E+02  2944   0.194E+03-0.172E+02
CGA:  12    -0.115801854109E+04    0.74334E+01   -0.93369E+01  2944   0.157E+03-0.917E+02
CGA:  13    -0.116363626978E+04   -0.56177E+01   -0.52040E+01  2944   0.146E+03-0.579E+02
CGA:  14    -0.117077258729E+04   -0.71363E+01   -0.47330E+01  2944   0.190E+03-0.135E+03
CGA:  15    -0.116998854474E+04    0.78404E+00   -0.13683E+02  2944   0.259E+03-0.502E+02
CGA:  16    -0.117010924559E+04   -0.12070E+00   -0.13544E+02  2944   0.820E+02-0.165E+02
CGA:  17    -0.117218471992E+04   -0.20755E+01   -0.39342E+01  2944   0.133E+03-0.675E+02
CGA:  18    -0.117228830929E+04   -0.10359E+00   -0.74347E+01  2944   0.167E+03-0.121E+03
CGA:  19    -0.117359719979E+04   -0.13089E+01   -0.94425E+01  2944   0.139E+03-0.117E+02
CGA:  20    -0.117982806603E+04   -0.62309E+01   -0.88368E+01  2944   0.725E+02 0.439E+02
CGA:  21    -0.117927355789E+04    0.55451E+00   -0.54546E+01  2944   0.780E+02-0.535E+02
CGA:  22    -0.118090374743E+04   -0.16302E+01   -0.40790E+01  2944   0.849E+02-0.105E+02
CGA:  23    -0.117320260765E+04    0.77011E+01   -0.23879E+01  2944   0.401E+03-0.185E+03
CGA:  24    -0.117428239078E+04   -0.10798E+01   -0.22697E+02  2944   0.582E+02-0.493E+02
CGA:  25    -0.117949349088E+04   -0.52111E+01   -0.17227E+01  2944   0.126E+03-0.174E+03
CGA:  26    -0.117746852714E+04    0.20250E+01   -0.57999E+01  2944   0.190E+03-0.476E+02
CGA:  27    -0.117566994912E+04    0.17986E+01   -0.49834E+01  2944   0.294E+03-0.193E+03
CGA:  28    -0.117441102817E+04    0.12589E+01   -0.14192E+02  2944   0.774E+02-0.434E+02
CGA:  29    -0.117868259688E+04   -0.42716E+01   -0.24704E+01  2944   0.162E+03-0.214E+03
CGA:  30    -0.117634259952E+04    0.23400E+01   -0.65176E+01  2944   0.107E+03-0.691E+02
CGA:  31    -0.118103937819E+04   -0.46968E+01   -0.22959E+01  2944   0.228E+03-0.225E+03
CGA:  32    -0.117680493978E+04    0.42344E+01   -0.89332E+01  2944   0.130E+03-0.655E+02
CGA:  33    -0.117895786202E+04   -0.21529E+01   -0.33721E+01  2944   0.213E+03-0.178E+03
CGA:  34    -0.117683192181E+04    0.21259E+01   -0.78603E+01  2944   0.932E+02-0.660E+02
CGA:  35    -0.118335583837E+04   -0.65239E+01   -0.18872E+01  2944   0.784E+02-0.127E+03
CGA:  36    -0.118288694625E+04    0.46889E+00   -0.22804E+01  2944   0.111E+03-0.532E+02
CGA:  37    -0.118108529249E+04    0.18017E+01   -0.29958E+01  2944   0.243E+03-0.154E+03
CGA:  38    -0.117809800039E+04    0.29873E+01   -0.78857E+01  2944   0.121E+03-0.791E+02
CGA:  39    -0.118400892654E+04   -0.59109E+01   -0.22543E+01  2944   0.379E+02-0.101E+03
CGA:  40    -0.118419684686E+04   -0.18792E+00   -0.66703E+00  2944   0.240E+02-0.275E+02
CGA:  41    -0.118441015616E+04   -0.21331E+00   -0.31855E+00  2944   0.403E+01-0.911E+01
CGA:  42    -0.118445790669E+04   -0.47751E-01   -0.50405E-01  2944   0.422E+00-0.113E+00
CGA:  43    -0.118447623812E+04   -0.18331E-01   -0.18479E-01  2944   0.107E+01 0.326E-03
CGA:  44    -0.118457706784E+04   -0.10083E+00   -0.95595E-01  2944   0.668E+00 0.113E+00
CGA:  45    -0.118461191219E+04   -0.34844E-01   -0.34246E-01  2944   0.824E+00-0.111E-02
CGA:  46    -0.118463852135E+04   -0.26609E-01   -0.23923E-01  2944   0.464E+00 0.695E-01
CGA:  47    -0.118465791609E+04   -0.19395E-01   -0.20837E-01  2944   0.385E+00 0.299E-02
CGA:  48    -0.118467124287E+04   -0.13327E-01   -0.14102E-01  2944   0.310E+00-0.516E-02
CGA:  49    -0.118469070963E+04   -0.19467E-01   -0.19346E-01  2944   0.175E+00 0.206E-01
CGA:  50    -0.118470482039E+04   -0.14111E-01   -0.14185E-01  2944   0.116E+00-0.356E-02
CGA:  51    -0.118471196438E+04   -0.71440E-02   -0.71383E-02  2944   0.744E-01 0.164E-02
CGA:  52    -0.118471574919E+04   -0.37848E-02   -0.38274E-02  2944   0.637E-01 0.115E-02
CGA:  53    -0.118471928111E+04   -0.35319E-02   -0.35420E-02  2944   0.381E-01 0.588E-03
CGA:  54    -0.118472194765E+04   -0.26665E-02   -0.26583E-02  2944   0.209E-01 0.501E-03
CGA:  55    -0.118472332868E+04   -0.13810E-02   -0.13808E-02  2944   0.187E-01-0.308E-04
CGA:  56    -0.118472442743E+04   -0.10987E-02   -0.10986E-02  2944   0.149E-01-0.115E-03
CGA:  57    -0.118472523207E+04   -0.80465E-03   -0.80397E-03  2944   0.849E-02-0.125E-03
CGA:  58    -0.118472605662E+04   -0.82454E-03   -0.81973E-03  2944   0.822E-02 0.908E-04
CGA:  59    -0.118472651304E+04   -0.45642E-03   -0.45600E-03  2944   0.641E-02-0.795E-04
CGA:  60    -0.118472686714E+04   -0.35410E-03   -0.35377E-03  2944   0.409E-02-0.589E-04
CGA:  61    -0.118472715090E+04   -0.28377E-03   -0.28491E-03  2944   0.302E-02-0.100E-03
CGA:  62    -0.118472738645E+04   -0.23554E-03   -0.23527E-03  2944   0.290E-02 0.409E-05
CGA:  63    -0.118472751128E+04   -0.12484E-03   -0.12472E-03  2944   0.145E-02-0.117E-04
CGA:  64    -0.118472763420E+04   -0.12292E-03   -0.12302E-03  2944   0.130E-02-0.509E-05
CGA:  65    -0.118472771531E+04   -0.81111E-04   -0.81109E-04  2944   0.114E-02-0.563E-05
CGA:  66    -0.118472777897E+04   -0.63661E-04   -0.63636E-04  2944   0.772E-03-0.341E-05
CGA:  67    -0.118472783231E+04   -0.53336E-04   -0.53339E-04  2944   0.573E-03 0.436E-06
CGA:  68    -0.118472787358E+04   -0.41273E-04   -0.41230E-04  2944   0.546E-03 0.420E-05
CGA:  69    -0.118472789894E+04   -0.25355E-04   -0.25387E-04  2944   0.292E-03 0.173E-05
CGA:  70    -0.118472792599E+04   -0.27055E-04   -0.26867E-04  2944   0.285E-03 0.621E-05
SDA:  71    -0.118472794088E+04   -0.14881E-04   -0.14922E-04  2944   0.167E-03 0.323E-05
CGA:  72    -0.118472794616E+04   -0.52814E-05   -0.53012E-05  2944   0.949E-04 0.407E-06
   1 F= -.11847279E+04 E0= -.11847088E+04  d E =-.118473E+04  mag=   118.0000
       N       E                     dE             d eps       ncg     rms          ort
SDA:   1    -0.118473288155E+04   -0.49407E-02    0.00000E+00  2944   0.450E-01 0.000E+00
CGA:   2    -0.118473412699E+04   -0.12454E-02   -0.12495E-02  2944   0.155E-01-0.842E-04
CGA:   3    -0.118473503483E+04   -0.90784E-03   -0.90802E-03  2944   0.884E-02 0.504E-04
CGA:   4    -0.118473629612E+04   -0.12613E-02   -0.12579E-02  2944   0.408E-02 0.451E-04
CGA:   5    -0.118473659799E+04   -0.30187E-03   -0.30193E-03  2944   0.192E-02-0.478E-05
CGA:   6    -0.118473677668E+04   -0.17869E-03   -0.17863E-03  2944   0.122E-02-0.274E-06
CGA:   7    -0.118473682901E+04   -0.52330E-04   -0.52197E-04  2944   0.103E-02-0.454E-05
CGA:   8    -0.118473689520E+04   -0.66185E-04   -0.66175E-04  2944   0.172E-03-0.798E-05
CGA:   9    -0.118473691739E+04   -0.22193E-04   -0.22162E-04  2944   0.130E-03 0.506E-06
CGA:  10    -0.118473692680E+04   -0.94083E-05   -0.94042E-05  2944   0.149E-03 0.140E-05
   2 F= -.11847369E+04 E0= -.11847178E+04  d E =-.898064E-02  mag=   118.0000
       N       E                     dE             d eps       ncg     rms          ort
SDA:   1    -0.118333909909E+04    0.13978E+01    0.00000E+00  2944   0.614E+01 0.000E+00
CGA:   2    -0.118364363031E+04   -0.30453E+00   -0.31236E+00  2944   0.838E+01 0.412E-01
CGA:   3    -0.118437485628E+04   -0.73123E+00   -0.73081E+00  2944   0.468E+01 0.149E-01
CGA:   4    -0.118462743270E+04   -0.25258E+00   -0.25479E+00  2944   0.109E+01 0.390E-01
CGA:   5    -0.118479627008E+04   -0.16884E+00   -0.16898E+00  2944   0.823E+00-0.155E-02
CGA:   6    -0.118482558121E+04   -0.29311E-01   -0.29273E-01  2944   0.484E+00-0.473E-03
CGA:   7    -0.118485499282E+04   -0.29412E-01   -0.29275E-01  2944   0.174E+00-0.524E-02
CGA:   8    -0.118487171034E+04   -0.16718E-01   -0.16677E-01  2944   0.700E-01 0.114E-02
CGA:   9    -0.118487679996E+04   -0.50896E-02   -0.50887E-02  2944   0.547E-01 0.296E-03
CGA:  10    -0.118487887974E+04   -0.20798E-02   -0.20829E-02  2944   0.303E-01-0.198E-04
CGA:  11    -0.118488147346E+04   -0.25937E-02   -0.25889E-02  2944   0.179E-01 0.208E-03
CGA:  12    -0.118488315552E+04   -0.16821E-02   -0.16807E-02  2944   0.827E-02 0.499E-04
CGA:  13    -0.118488362324E+04   -0.46772E-03   -0.46767E-03  2944   0.106E-01 0.194E-05
CGA:  14    -0.118488427737E+04   -0.65413E-03   -0.65418E-03  2944   0.459E-02 0.519E-05
CGA:  15    -0.118488474400E+04   -0.46663E-03   -0.46732E-03  2944   0.259E-02-0.178E-04
CGA:  16    -0.118488494748E+04   -0.20348E-03   -0.20352E-03  2944   0.333E-02-0.474E-05
CGA:  17    -0.118488508281E+04   -0.13533E-03   -0.13515E-03  2944   0.151E-02-0.620E-05
CGA:  18    -0.118488524002E+04   -0.15722E-03   -0.15728E-03  2944   0.101E-02-0.214E-05
CGA:  19    -0.118488531619E+04   -0.76167E-04   -0.76162E-04  2944   0.573E-03 0.675E-06
CGA:  20    -0.118488534233E+04   -0.26137E-04   -0.26210E-04  2944   0.586E-03 0.269E-05
CGA:  21    -0.118488540325E+04   -0.60921E-04   -0.60624E-04  2944   0.253E-03 0.948E-05
CGA:  22    -0.118488542854E+04   -0.25294E-04   -0.25188E-04  2944   0.244E-03 0.451E-05
CGA:  23    -0.118488544256E+04   -0.14017E-04   -0.14054E-04  2944   0.298E-03 0.226E-05
CGA:  24    -0.118488546223E+04   -0.19668E-04   -0.19694E-04  2944   0.136E-03 0.357E-05
CGA:  25    -0.118488547884E+04   -0.16611E-04   -0.16544E-04  2944   0.108E-03 0.139E-05
CGA:  26    -0.118488548630E+04   -0.74596E-05   -0.74696E-05  2944   0.111E-03 0.143E-05
   3 F= -.11848855E+04 E0= -.11848664E+04  d E =-.148559E+00  mag=   118.0000
       N       E                     dE             d eps       ncg     rms          ort
SDA:   1    -0.117974312325E+04    0.51424E+01    0.00000E+00  2944   0.182E+02 0.000E+00
CGA:   2    -0.118093587579E+04   -0.11928E+01   -0.12035E+01  2944   0.347E+02 0.533E+00
CGA:   3    -0.118362009665E+04   -0.26842E+01   -0.26850E+01  2944   0.723E+01-0.176E+00
CGA:   4    -0.118421805564E+04   -0.59796E+00   -0.59145E+00  2944   0.652E+01 0.426E+00
CGA:   5    -0.118461702127E+04   -0.39897E+00   -0.40076E+00  2944   0.570E+01 0.208E-01
CGA:   6    -0.118481789704E+04   -0.20088E+00   -0.21603E+00  2944   0.115E+01-0.257E+00
CGA:   7    -0.118494034846E+04   -0.12245E+00   -0.12301E+00  2944   0.777E+00-0.108E-01
CGA:   8    -0.118497682237E+04   -0.36474E-01   -0.37005E-01  2944   0.521E+00-0.117E-02
CGA:   9    -0.118499721834E+04   -0.20396E-01   -0.20468E-01  2944   0.168E+00-0.799E-03
CGA:  10    -0.118501316225E+04   -0.15944E-01   -0.15882E-01  2944   0.104E+00 0.189E-02
CGA:  11    -0.118501949752E+04   -0.63353E-02   -0.63394E-02  2944   0.120E+00 0.134E-03
CGA:  12    -0.118502531999E+04   -0.58225E-02   -0.58367E-02  2944   0.378E-01 0.631E-04
CGA:  13    -0.118502865700E+04   -0.33370E-02   -0.33366E-02  2944   0.290E-01 0.268E-04
CGA:  14    -0.118503070230E+04   -0.20453E-02   -0.20453E-02  2944   0.388E-01 0.110E-03
CGA:  15    -0.118503242171E+04   -0.17194E-02   -0.17217E-02  2944   0.982E-02 0.995E-05
CGA:  16    -0.118503357464E+04   -0.11529E-02   -0.11511E-02  2944   0.127E-01 0.461E-04
CGA:  17    -0.118503424254E+04   -0.66790E-03   -0.66838E-03  2944   0.110E-01 0.965E-05
CGA:  18    -0.118503480633E+04   -0.56379E-03   -0.56507E-03  2944   0.388E-02 0.280E-05
CGA:  19    -0.118503524042E+04   -0.43409E-03   -0.43375E-03  2944   0.392E-02 0.773E-05
CGA:  20    -0.118503540634E+04   -0.16592E-03   -0.16604E-03  2944   0.282E-02 0.211E-05
CGA:  21    -0.118503562470E+04   -0.21836E-03   -0.21827E-03  2944   0.157E-02 0.115E-04
CGA:  22    -0.118503575773E+04   -0.13302E-03   -0.13287E-03  2944   0.134E-02 0.107E-04
CGA:  23    -0.118503581763E+04   -0.59905E-04   -0.60057E-04  2944   0.109E-02 0.532E-05
CGA:  24    -0.118503593331E+04   -0.11568E-03   -0.11538E-03  2944   0.675E-03 0.827E-05
CGA:  25    -0.118503598374E+04   -0.50428E-04   -0.50417E-04  2944   0.751E-03 0.444E-05
CGA:  26    -0.118503602060E+04   -0.36861E-04   -0.36903E-04  2944   0.564E-03 0.216E-05
CGA:  27    -0.118503607479E+04   -0.54194E-04   -0.54132E-04  2944   0.277E-03 0.242E-05
CGA:  28    -0.118503609529E+04   -0.20499E-04   -0.20497E-04  2944   0.374E-03 0.862E-06
CGA:  29    -0.118503611289E+04   -0.17592E-04   -0.17623E-04  2944   0.169E-03 0.117E-05
CGA:  30    -0.118503612864E+04   -0.15752E-04   -0.15755E-04  2944   0.110E-03-0.204E-06
CGA:  31    -0.118503613538E+04   -0.67392E-05   -0.67413E-05  2944   0.115E-03 0.158E-06
   4 F= -.11850361E+04 E0= -.11850172E+04  d E =-.150649E+00  mag=   118.0000
       N       E                     dE             d eps       ncg     rms          ort
SDA:   1    -0.117793492819E+04    0.71012E+01    0.00000E+00  2944   0.235E+02 0.000E+00
CGA:   2    -0.118001126941E+04   -0.20763E+01   -0.20615E+01  2944   0.554E+02 0.775E+00
CGA:   3    -0.118310019133E+04   -0.30889E+01   -0.30686E+01  2944   0.891E+01-0.631E+00
CGA:   4    -0.118407185330E+04   -0.97166E+00   -0.96979E+00  2944   0.147E+02 0.119E+00
CGA:   5    -0.118459686580E+04   -0.52501E+00   -0.51099E+00  2944   0.361E+01 0.819E-01
CGA:   6    -0.118486407793E+04   -0.26721E+00   -0.26667E+00  2944   0.191E+01 0.938E-01
CGA:   7    -0.118497400913E+04   -0.10993E+00   -0.11024E+00  2944   0.173E+01 0.461E-02
CGA:   8    -0.118505487949E+04   -0.80870E-01   -0.81488E-01  2944   0.496E+00-0.283E-02
CGA:   9    -0.118508429932E+04   -0.29420E-01   -0.29399E-01  2944   0.239E+00-0.800E-03
CGA:  10    -0.118509920488E+04   -0.14906E-01   -0.14891E-01  2944   0.285E+00-0.106E-02
CGA:  11    -0.118511388608E+04   -0.14681E-01   -0.14761E-01  2944   0.820E-01 0.103E-02
CGA:  12    -0.118512147451E+04   -0.75884E-02   -0.75780E-02  2944   0.752E-01 0.329E-03
CGA:  13    -0.118512433265E+04   -0.28581E-02   -0.28672E-02  2944   0.405E-01-0.582E-04
CGA:  14    -0.118512891442E+04   -0.45818E-02   -0.45901E-02  2944   0.293E-01-0.164E-03
CGA:  15    -0.118513027759E+04   -0.13632E-02   -0.13659E-02  2944   0.229E-01 0.170E-04
CGA:  16    -0.118513173625E+04   -0.14587E-02   -0.14588E-02  2944   0.123E-01 0.216E-04
CGA:  17    -0.118513308038E+04   -0.13441E-02   -0.13409E-02  2944   0.196E-01 0.708E-04
CGA:  18    -0.118513381442E+04   -0.73404E-03   -0.73473E-03  2944   0.553E-02-0.215E-05
CGA:  19    -0.118513437044E+04   -0.55601E-03   -0.55399E-03  2944   0.593E-02 0.537E-04
CGA:  20    -0.118513466684E+04   -0.29640E-03   -0.29645E-03  2944   0.473E-02 0.643E-05
CGA:  21    -0.118513500007E+04   -0.33323E-03   -0.33319E-03  2944   0.240E-02 0.189E-04
CGA:  22    -0.118513517577E+04   -0.17571E-03   -0.17568E-03  2944   0.256E-02 0.576E-05
CGA:  23    -0.118513529303E+04   -0.11726E-03   -0.11748E-03  2944   0.123E-02 0.593E-05
CGA:  24    -0.118513543459E+04   -0.14155E-03   -0.14132E-03  2944   0.160E-02 0.511E-05
CGA:  25    -0.118513551158E+04   -0.76995E-04   -0.77093E-04  2944   0.963E-03 0.296E-05
CGA:  26    -0.118513556736E+04   -0.55783E-04   -0.55801E-04  2944   0.573E-03 0.665E-06
CGA:  27    -0.118513563131E+04   -0.63943E-04   -0.63863E-04  2944   0.875E-03 0.178E-05
CGA:  28    -0.118513566693E+04   -0.35626E-04   -0.35598E-04  2944   0.347E-03-0.611E-06
CGA:  29    -0.118513569568E+04   -0.28751E-04   -0.28777E-04  2944   0.247E-03-0.187E-05
CGA:  30    -0.118513571104E+04   -0.15356E-04   -0.15343E-04  2944   0.309E-03-0.172E-05
CGA:  31    -0.118513573030E+04   -0.19265E-04   -0.19257E-04  2944   0.841E-04-0.131E-05
SDA:  32    -0.118513573688E+04   -0.65768E-05   -0.65825E-05  2944   0.138E-03-0.652E-06
   5 F= -.11851357E+04 E0= -.11851170E+04  d E =-.996015E-01  mag=   118.0000
       N       E                     dE             d eps       ncg     rms          ort
SDA:   1    -0.116675859343E+04    0.18377E+02    0.00000E+00  2944   0.544E+02 0.000E+00
CGA:   2    -0.117543095950E+04   -0.86724E+01   -0.83484E+01  2944   0.117E+03 0.489E+01
CGA:   3    -0.117967499059E+04   -0.42440E+01   -0.47407E+01  2944   0.356E+02-0.152E+02
CGA:   4    -0.118215823428E+04   -0.24832E+01   -0.25284E+01  2944   0.348E+02-0.233E+01
CGA:   5    -0.118356543151E+04   -0.14072E+01   -0.14319E+01  2944   0.129E+02-0.670E+00
CGA:   6    -0.118422631004E+04   -0.66088E+00   -0.66290E+00  2944   0.806E+01-0.100E+00
CGA:   7    -0.118464479899E+04   -0.41849E+00   -0.41871E+00  2944   0.434E+01-0.209E-01
CGA:   8    -0.118484995116E+04   -0.20515E+00   -0.20292E+00  2944   0.189E+01-0.102E-01
CGA:   9    -0.118494705406E+04   -0.97103E-01   -0.97729E-01  2944   0.119E+01 0.929E-02
CGA:  10    -0.118501031317E+04   -0.63259E-01   -0.63413E-01  2944   0.670E+00 0.242E-02
CGA:  11    -0.118504593137E+04   -0.35618E-01   -0.35717E-01  2944   0.395E+00 0.239E-02
CGA:  12    -0.118506642378E+04   -0.20492E-01   -0.20476E-01  2944   0.259E+00-0.239E-03
CGA:  13    -0.118508406853E+04   -0.17645E-01   -0.17627E-01  2944   0.212E+00 0.244E-02
CGA:  14    -0.118509358449E+04   -0.95160E-02   -0.95500E-02  2944   0.881E-01 0.140E-03
CGA:  15    -0.118509974445E+04   -0.61600E-02   -0.61558E-02  2944   0.102E+00 0.395E-03
CGA:  16    -0.118510571130E+04   -0.59668E-02   -0.59673E-02  2944   0.529E-01 0.807E-04
CGA:  17    -0.118510857579E+04   -0.28645E-02   -0.28688E-02  2944   0.419E-01 0.192E-03
CGA:  18    -0.118511149414E+04   -0.29184E-02   -0.29180E-02  2944   0.355E-01 0.481E-04
CGA:  19    -0.118511348713E+04   -0.19930E-02   -0.19939E-02  2944   0.231E-01 0.789E-04
CGA:  20    -0.118511481044E+04   -0.13233E-02   -0.13232E-02  2944   0.164E-01 0.276E-05
CGA:  21    -0.118511589704E+04   -0.10866E-02   -0.10864E-02  2944   0.140E-01 0.432E-04
CGA:  22    -0.118511665236E+04   -0.75533E-03   -0.75549E-03  2944   0.806E-02 0.133E-04
CGA:  23    -0.118511717696E+04   -0.52459E-03   -0.52453E-03  2944   0.756E-02 0.211E-04
CGA:  24    -0.118511763339E+04   -0.45643E-03   -0.45643E-03  2944   0.486E-02 0.770E-05
CGA:  25    -0.118511792000E+04   -0.28661E-03   -0.28666E-03  2944   0.387E-02 0.122E-04
CGA:  26    -0.118511817142E+04   -0.25142E-03   -0.25141E-03  2944   0.319E-02 0.571E-05
CGA:  27    -0.118511837899E+04   -0.20758E-03   -0.20755E-03  2944   0.274E-02 0.847E-05
CGA:  28    -0.118511854251E+04   -0.16352E-03   -0.16352E-03  2944   0.194E-02 0.250E-05
CGA:  29    -0.118511867248E+04   -0.12997E-03   -0.12995E-03  2944   0.188E-02 0.390E-05
CGA:  30    -0.118511878879E+04   -0.11631E-03   -0.11631E-03  2944   0.126E-02-0.382E-06
CGA:  31    -0.118511886074E+04   -0.71951E-04   -0.71949E-04  2944   0.961E-03-0.312E-06
SDA:  32    -0.118511892404E+04   -0.63292E-04   -0.63306E-04  2944   0.757E-03-0.358E-05
CGA:  33    -0.118511894228E+04   -0.18245E-04   -0.18253E-04  2944   0.256E-03-0.467E-06
CGA:  34    -0.118511899215E+04   -0.49875E-04   -0.50571E-04  2944   0.485E-03-0.518E-05
CGA:  35    -0.118511902403E+04   -0.31879E-04   -0.31879E-04  2944   0.887E-04-0.237E-05
CGA:  36    -0.118511903699E+04   -0.12959E-04   -0.13146E-04  2944   0.145E-03-0.231E-05
CGA:  37    -0.118511904575E+04   -0.87538E-05   -0.87440E-05  2944   0.190E-03-0.111E-05
   6 F= -.11851190E+04 E0= -.11851000E+04  d E =0.166911E-01  mag=   118.0000
       N       E                     dE             d eps       ncg     rms          ort
SDA:   1    -0.118318039699E+04    0.19386E+01    0.00000E+00  2944   0.558E+01 0.000E+00
CGA:   2    -0.118428410902E+04   -0.11037E+01   -0.10670E+01  2944   0.724E+01 0.352E+00
CGA:   3    -0.118469319160E+04   -0.40908E+00   -0.41629E+00  2944   0.665E+01-0.642E-01
CGA:   4    -0.118493298709E+04   -0.23980E+00   -0.23294E+00  2944   0.184E+01 0.957E-01
CGA:   5    -0.118508368044E+04   -0.15069E+00   -0.15043E+00  2944   0.154E+01 0.202E-01
CGA:   6    -0.118513654810E+04   -0.52868E-01   -0.52270E-01  2944   0.848E+00 0.727E-02
CGA:   7    -0.118518544119E+04   -0.48893E-01   -0.48685E-01  2944   0.278E+00-0.343E-02
CGA:   8    -0.118520622164E+04   -0.20780E-01   -0.20762E-01  2944   0.329E+00 0.237E-02
CGA:   9    -0.118521647194E+04   -0.10250E-01   -0.10023E-01  2944   0.802E-01 0.464E-02
CGA:  10    -0.118522491671E+04   -0.84448E-02   -0.85234E-02  2944   0.499E-01-0.185E-02
CGA:  11    -0.118522720990E+04   -0.22932E-02   -0.22868E-02  2944   0.444E-01-0.102E-05
CGA:  12    -0.118522927429E+04   -0.20644E-02   -0.20685E-02  2944   0.201E-01 0.828E-06
CGA:  13    -0.118523132679E+04   -0.20525E-02   -0.20533E-02  2944   0.131E-01-0.205E-04
CGA:  14    -0.118523200444E+04   -0.67765E-03   -0.67744E-03  2944   0.144E-01 0.314E-05
CGA:  15    -0.118523267736E+04   -0.67292E-03   -0.67335E-03  2944   0.498E-02 0.682E-05
CGA:  16    -0.118523321031E+04   -0.53295E-03   -0.53296E-03  2944   0.419E-02 0.606E-06
CGA:  17    -0.118523339993E+04   -0.18962E-03   -0.18980E-03  2944   0.416E-02 0.426E-05
CGA:  18    -0.118523364086E+04   -0.24093E-03   -0.24096E-03  2944   0.137E-02 0.411E-05
CGA:  19    -0.118523376812E+04   -0.12726E-03   -0.12727E-03  2944   0.121E-02-0.661E-06
CGA:  20    -0.118523382792E+04   -0.59797E-04   -0.59811E-04  2944   0.126E-02 0.399E-06
CGA:  21    -0.118523389451E+04   -0.66598E-04   -0.66582E-04  2944   0.345E-03-0.340E-06
CGA:  22    -0.118523393451E+04   -0.39995E-04   -0.40045E-04  2944   0.354E-03-0.108E-05
CGA:  23    -0.118523395047E+04   -0.15965E-04   -0.15974E-04  2944   0.326E-03 0.240E-06
CGA:  24    -0.118523396950E+04   -0.19028E-04   -0.19034E-04  2944   0.164E-03 0.386E-06
CGA:  25    -0.118523398788E+04   -0.18382E-04   -0.18357E-04  2944   0.134E-03 0.552E-06
CGA:  26    -0.118523399374E+04   -0.58607E-05   -0.58781E-05  2944   0.136E-03 0.648E-06
   7 F= -.11852340E+04 E0= -.11852152E+04  d E =-.114948E+00  mag=   118.0000
       N       E                     dE             d eps       ncg     rms          ort
SDA:   1    -0.118484743733E+04    0.38655E+00    0.00000E+00  2944   0.112E+01 0.000E+00
CGA:   2    -0.118508304346E+04   -0.23561E+00   -0.23600E+00  2944   0.226E+01-0.277E-02
CGA:   3    -0.118514244032E+04   -0.59397E-01   -0.60690E-01  2944   0.558E+00-0.435E-01
CGA:   4    -0.118521049533E+04   -0.68055E-01   -0.68516E-01  2944   0.319E+00-0.821E-02
CGA:   5    -0.118522902946E+04   -0.18534E-01   -0.18595E-01  2944   0.249E+00 0.671E-03
CGA:   6    -0.118523821422E+04   -0.91848E-02   -0.90250E-02  2944   0.825E-01 0.238E-02
CGA:   7    -0.118524610035E+04   -0.78861E-02   -0.78783E-02  2944   0.475E-01 0.303E-03
CGA:   8    -0.118524847687E+04   -0.23765E-02   -0.23811E-02  2944   0.256E-01 0.209E-04
CGA:   9    -0.118524946159E+04   -0.98472E-03   -0.98248E-03  2944   0.113E-01 0.418E-04
CGA:  10    -0.118525064811E+04   -0.11865E-02   -0.11863E-02  2944   0.598E-02 0.753E-05
CGA:  11    -0.118525098507E+04   -0.33697E-03   -0.33709E-03  2944   0.697E-02 0.198E-05
CGA:  12    -0.118525135909E+04   -0.37402E-03   -0.37372E-03  2944   0.163E-02-0.580E-05
CGA:  13    -0.118525156293E+04   -0.20384E-03   -0.20392E-03  2944   0.307E-02-0.172E-05
CGA:  14    -0.118525167549E+04   -0.11256E-03   -0.11239E-03  2944   0.981E-03-0.157E-05
CGA:  15    -0.118525175287E+04   -0.77374E-04   -0.77365E-04  2944   0.704E-03 0.150E-05
CGA:  16    -0.118525180934E+04   -0.56469E-04   -0.56455E-04  2944   0.805E-03 0.176E-05
CGA:  17    -0.118525184260E+04   -0.33260E-04   -0.33339E-04  2944   0.377E-03 0.234E-05
CGA:  18    -0.118525187939E+04   -0.36794E-04   -0.36700E-04  2944   0.215E-03 0.368E-05
CGA:  19    -0.118525189199E+04   -0.12601E-04   -0.12614E-04  2944   0.236E-03 0.877E-06
CGA:  20    -0.118525190442E+04   -0.12428E-04   -0.12426E-04  2944   0.996E-04-0.104E-06
CGA:  21    -0.118525191690E+04   -0.12480E-04   -0.12489E-04  2944   0.108E-03-0.162E-06
CGA:  22    -0.118525192064E+04   -0.37362E-05   -0.37188E-05  2944   0.490E-04-0.436E-06
   8 F= -.11852519E+04 E0= -.11852331E+04  d E =-.179269E-01  mag=   118.0000
       N       E                     dE             d eps       ncg     rms          ort
SDA:   1    -0.118433597571E+04    0.91594E+00    0.00000E+00  2944   0.291E+01 0.000E+00
CGA:   2    -0.118462571639E+04   -0.28974E+00   -0.28853E+00  2944   0.693E+01 0.381E-01
CGA:   3    -0.118496948001E+04   -0.34376E+00   -0.34519E+00  2944   0.221E+01-0.191E-01
CGA:   4    -0.118510454497E+04   -0.13506E+00   -0.13311E+00  2944   0.103E+01-0.452E-01
CGA:   5    -0.118520861494E+04   -0.10407E+00   -0.10396E+00  2944   0.981E+00 0.325E-02
CGA:   6    -0.118523521826E+04   -0.26603E-01   -0.26985E-01  2944   0.176E+00-0.105E-01
CGA:   7    -0.118525668574E+04   -0.21467E-01   -0.21566E-01  2944   0.177E+00-0.173E-02
CGA:   8    -0.118526319984E+04   -0.65141E-02   -0.65545E-02  2944   0.804E-01-0.534E-03
CGA:   9    -0.118526722659E+04   -0.40268E-02   -0.40051E-02  2944   0.207E-01-0.292E-04
CGA:  10    -0.118526912245E+04   -0.18959E-02   -0.18931E-02  2944   0.346E-01 0.102E-03
CGA:  11    -0.118527057074E+04   -0.14483E-02   -0.14448E-02  2944   0.894E-02 0.298E-04
CGA:  12    -0.118527121752E+04   -0.64678E-03   -0.64672E-03  2944   0.616E-02 0.303E-04
CGA:  13    -0.118527152732E+04   -0.30980E-03   -0.30949E-03  2944   0.567E-02-0.518E-05
CGA:  14    -0.118527195123E+04   -0.42391E-03   -0.42380E-03  2944   0.247E-02 0.127E-04
CGA:  15    -0.118527211803E+04   -0.16679E-03   -0.16679E-03  2944   0.272E-02-0.447E-06
CGA:  16    -0.118527223660E+04   -0.11857E-03   -0.11878E-03  2944   0.958E-03 0.220E-05
CGA:  17    -0.118527236837E+04   -0.13177E-03   -0.13137E-03  2944   0.175E-02 0.593E-05
CGA:  18    -0.118527243018E+04   -0.61806E-04   -0.61981E-04  2944   0.502E-03 0.324E-05
CGA:  19    -0.118527247427E+04   -0.44094E-04   -0.44073E-04  2944   0.501E-03 0.133E-05
CGA:  20    -0.118527250351E+04   -0.29237E-04   -0.29262E-04  2944   0.463E-03 0.190E-05
CGA:  21    -0.118527252979E+04   -0.26283E-04   -0.26298E-04  2944   0.233E-03 0.109E-05
CGA:  22    -0.118527254844E+04   -0.18648E-04   -0.18644E-04  2944   0.211E-03 0.333E-06
CGA:  23    -0.118527255725E+04   -0.88059E-05   -0.87939E-05  2944   0.111E-03-0.358E-06
CGA:  24    -0.118527256743E+04   -0.10184E-04   -0.10187E-04  2944   0.108E-03-0.124E-06
CGA:  25    -0.118527257467E+04   -0.72366E-05   -0.72348E-05  2944   0.118E-03-0.661E-06
   9 F= -.11852726E+04 E0= -.11852537E+04  d E =-.206540E-01  mag=   118.0000
       N       E                     dE             d eps       ncg     rms          ort
SDA:   1    -0.118179162411E+04    0.34809E+01    0.00000E+00  2944   0.966E+01 0.000E+00
CGA:   2    -0.118389272443E+04   -0.21011E+01   -0.21063E+01  2944   0.116E+02-0.476E-01
CGA:   3    -0.118433251334E+04   -0.43979E+00   -0.41885E+00  2944   0.677E+01 0.172E+00
CGA:   4    -0.118485196825E+04   -0.51945E+00   -0.51903E+00  2944   0.360E+01 0.181E+00
CGA:   5    -0.118510099262E+04   -0.24902E+00   -0.24944E+00  2944   0.184E+01 0.216E-01
CGA:   6    -0.118516837437E+04   -0.67382E-01   -0.68293E-01  2944   0.955E+00-0.165E-01
CGA:   7    -0.118523117416E+04   -0.62800E-01   -0.62886E-01  2944   0.470E+00 0.636E-02
CGA:   8    -0.118526808684E+04   -0.36913E-01   -0.36914E-01  2944   0.198E+00-0.105E-03
CGA:   9    -0.118527467820E+04   -0.65914E-02   -0.66302E-02  2944   0.111E+00-0.760E-03
CGA:  10    -0.118528470155E+04   -0.10023E-01   -0.10009E-01  2944   0.512E-01 0.535E-03
CGA:  11    -0.118528889894E+04   -0.41974E-02   -0.41937E-02  2944   0.523E-01 0.223E-03
CGA:  12    -0.118529084177E+04   -0.19428E-02   -0.19439E-02  2944   0.231E-01-0.915E-05
CGA:  13    -0.118529241167E+04   -0.15699E-02   -0.15701E-02  2944   0.137E-01 0.493E-04
CGA:  14    -0.118529368980E+04   -0.12781E-02   -0.12782E-02  2944   0.132E-01 0.151E-05
CGA:  15    -0.118529422370E+04   -0.53390E-03   -0.53356E-03  2944   0.855E-02 0.693E-05
CGA:  16    -0.118529481637E+04   -0.59267E-03   -0.59267E-03  2944   0.378E-02 0.854E-06
CGA:  17    -0.118529527395E+04   -0.45758E-03   -0.45701E-03  2944   0.661E-02 0.110E-04
CGA:  18    -0.118529550976E+04   -0.23581E-03   -0.23598E-03  2944   0.253E-02 0.829E-05
CGA:  19    -0.118529572855E+04   -0.21879E-03   -0.21884E-03  2944   0.168E-02-0.269E-06
CGA:  20    -0.118529585172E+04   -0.12316E-03   -0.12316E-03  2944   0.195E-02 0.386E-05
CGA:  21    -0.118529593847E+04   -0.86750E-04   -0.86784E-04  2944   0.111E-02 0.188E-05
CGA:  22    -0.118529603470E+04   -0.96233E-04   -0.96145E-04  2944   0.613E-03 0.472E-05
CGA:  23    -0.118529607367E+04   -0.38972E-04   -0.38970E-04  2944   0.698E-03-0.335E-06
CGA:  24    -0.118529610937E+04   -0.35697E-04   -0.35710E-04  2944   0.471E-03 0.230E-06
CGA:  25    -0.118529615520E+04   -0.45833E-04   -0.45837E-04  2944   0.299E-03 0.317E-07
CGA:  26    -0.118529617393E+04   -0.18730E-04   -0.18737E-04  2944   0.363E-03 0.788E-06
CGA:  27    -0.118529619187E+04   -0.17939E-04   -0.17932E-04  2944   0.179E-03-0.485E-08
CGA:  28    -0.118529621263E+04   -0.20760E-04   -0.20771E-04  2944   0.147E-03-0.228E-06
CGA:  29    -0.118529621947E+04   -0.68358E-05   -0.68225E-05  2944   0.136E-03-0.509E-06
  10 F= -.11852962E+04 E0= -.11852772E+04  d E =-.236448E-01  mag=   118.0000
       N       E                     dE             d eps       ncg     rms          ort
SDA:   1    -0.115817652398E+04    0.27120E+02    0.00000E+00  2944   0.739E+02 0.000E+00
CGA:   2    -0.116864215424E+04   -0.10466E+02   -0.94033E+01  2944   0.651E+02 0.179E+02
CGA:   3    -0.117596374250E+04   -0.73216E+01   -0.74407E+01  2944   0.640E+02-0.225E+01
CGA:   4    -0.117907444726E+04   -0.31107E+01   -0.28073E+01  2944   0.362E+02-0.147E+02
CGA:   5    -0.118024011799E+04   -0.11657E+01   -0.12369E+01  2944   0.575E+02-0.161E+01
CGA:   6    -0.118129022895E+04   -0.10501E+01   -0.10859E+01  2944   0.195E+02-0.311E+02
CGA:   7    -0.118183477039E+04   -0.54454E+00   -0.70982E+00  2944   0.533E+01-0.198E+01
CGA:   8    -0.118230183013E+04   -0.46706E+00   -0.52501E+00  2944   0.146E+02-0.117E+01
CGA:   9    -0.118262597572E+04   -0.32415E+00   -0.34239E+00  2944   0.446E+01-0.478E+00
CGA:  10    -0.118276167723E+04   -0.13570E+00   -0.15368E+00  2944   0.117E+01-0.225E+00
CGA:  11    -0.118279222960E+04   -0.30552E-01   -0.31399E-01  2944   0.991E+00-0.204E-01
CGA:  12    -0.118286272378E+04   -0.70494E-01   -0.70218E-01  2944   0.116E+01 0.211E-01
CGA:  13    -0.118291322095E+04   -0.50497E-01   -0.51573E-01  2944   0.127E+01 0.491E-03
CGA:  14    -0.118295529742E+04   -0.42076E-01   -0.42398E-01  2944   0.365E+00-0.705E-02
CGA:  15    -0.118297591064E+04   -0.20613E-01   -0.20709E-01  2944   0.338E+00 0.875E-02
CGA:  16    -0.118298739419E+04   -0.11484E-01   -0.11947E-01  2944   0.178E+00-0.431E-02
CGA:  17    -0.118300087600E+04   -0.13482E-01   -0.13522E-01  2944   0.121E+00-0.167E-02
CGA:  18    -0.118300941003E+04   -0.85340E-02   -0.84925E-02  2944   0.645E-01 0.274E-02
CGA:  19    -0.118301198268E+04   -0.25726E-02   -0.25597E-02  2944   0.431E-01 0.404E-04
CGA:  20    -0.118301461496E+04   -0.26323E-02   -0.26317E-02  2944   0.268E-01 0.353E-03
CGA:  21    -0.118301696659E+04   -0.23516E-02   -0.23496E-02  2944   0.184E-01 0.562E-04
CGA:  22    -0.118301817587E+04   -0.12093E-02   -0.12088E-02  2944   0.233E-01 0.637E-04
CGA:  23    -0.118301911082E+04   -0.93495E-03   -0.93222E-03  2944   0.552E-02 0.460E-05
CGA:  24    -0.118301978312E+04   -0.67231E-03   -0.66822E-03  2944   0.750E-02 0.669E-04
CGA:  25    -0.118302020845E+04   -0.42533E-03   -0.42549E-03  2944   0.808E-02 0.170E-04
CGA:  26    -0.118302058348E+04   -0.37503E-03   -0.37623E-03  2944   0.189E-02 0.236E-04
CGA:  27    -0.118302076436E+04   -0.18088E-03   -0.18058E-03  2944   0.176E-02 0.876E-05
CGA:  28    -0.118302086811E+04   -0.10375E-03   -0.10379E-03  2944   0.246E-02 0.577E-05
CGA:  29    -0.118302101405E+04   -0.14594E-03   -0.14600E-03  2944   0.631E-03 0.102E-04
CGA:  30    -0.118302109575E+04   -0.81702E-04   -0.81524E-04  2944   0.113E-02 0.262E-05
CGA:  31    -0.118302114648E+04   -0.50726E-04   -0.50781E-04  2944   0.842E-03 0.226E-05
CGA:  32    -0.118302119488E+04   -0.48403E-04   -0.48393E-04  2944   0.303E-03 0.415E-06
CGA:  33    -0.118302123543E+04   -0.40546E-04   -0.40691E-04  2944   0.447E-03-0.218E-05
CGA:  34    -0.118302125058E+04   -0.15147E-04   -0.15086E-04  2944   0.219E-03-0.163E-05
CGA:  35    -0.118302127072E+04   -0.20143E-04   -0.20214E-04  2944   0.136E-03-0.289E-05
CGA:  36    -0.118302127892E+04   -0.82019E-05   -0.81859E-05  2944   0.846E-04-0.221E-05
  11 F= -.11830213E+04 E0= -.11830006E+04  d E =0.227494E+01  mag=   118.0000
       N       E                     dE             d eps       ncg     rms          ort
SDA:   1    -0.117466024492E+04    0.83610E+01    0.00000E+00  2944   0.382E+02 0.000E+00
CGA:   2    -0.117755905024E+04   -0.28988E+01   -0.28174E+01  2944   0.452E+02 0.748E+01
CGA:   3    -0.118025940778E+04   -0.27004E+01   -0.28078E+01  2944   0.460E+02 0.764E+00
CGA:   4    -0.118332833360E+04   -0.30689E+01   -0.30578E+01  2944   0.181E+02-0.402E+01
CGA:   5    -0.118381426212E+04   -0.48593E+00   -0.53281E+00  2944   0.119E+02-0.827E+00
CGA:   6    -0.118422779368E+04   -0.41353E+00   -0.38432E+00  2944   0.347E+01-0.177E+00
CGA:   7    -0.118460149176E+04   -0.37370E+00   -0.41414E+00  2944   0.508E+01-0.686E+00
CGA:   8    -0.118474681239E+04   -0.14532E+00   -0.14727E+00  2944   0.259E+01-0.324E-01
CGA:   9    -0.118484881502E+04   -0.10200E+00   -0.97785E-01  2944   0.492E+00 0.198E-01
CGA:  10    -0.118490665645E+04   -0.57841E-01   -0.55558E-01  2944   0.456E+00 0.417E-01
CGA:  11    -0.118493650172E+04   -0.29845E-01   -0.29946E-01  2944   0.520E+00 0.790E-02
CGA:  12    -0.118495778429E+04   -0.21283E-01   -0.21103E-01  2944   0.364E+00 0.119E-02
CGA:  13    -0.118497549122E+04   -0.17707E-01   -0.18361E-01  2944   0.142E+00 0.103E-01
CGA:  14    -0.118498480197E+04   -0.93107E-02   -0.93111E-02  2944   0.179E+00 0.215E-02
CGA:  15    -0.118499100742E+04   -0.62055E-02   -0.61219E-02  2944   0.693E-01 0.845E-03
CGA:  16    -0.118499720931E+04   -0.62019E-02   -0.61706E-02  2944   0.510E-01 0.895E-03
CGA:  17    -0.118499942152E+04   -0.22122E-02   -0.22616E-02  2944   0.448E-01 0.177E-03
CGA:  18    -0.118500163020E+04   -0.22087E-02   -0.22104E-02  2944   0.198E-01 0.312E-04
CGA:  19    -0.118500339077E+04   -0.17606E-02   -0.17627E-02  2944   0.993E-02-0.587E-04
CGA:  20    -0.118500414271E+04   -0.75194E-03   -0.74907E-03  2944   0.748E-02 0.157E-03
CGA:  21    -0.118500450339E+04   -0.36068E-03   -0.36109E-03  2944   0.658E-02 0.147E-04
CGA:  22    -0.118500483638E+04   -0.33299E-03   -0.33318E-03  2944   0.218E-02 0.137E-04
CGA:  23    -0.118500507936E+04   -0.24297E-03   -0.24159E-03  2944   0.124E-02 0.275E-04
CGA:  24    -0.118500520186E+04   -0.12250E-03   -0.12186E-03  2944   0.713E-03 0.174E-04
CGA:  25    -0.118500526298E+04   -0.61124E-04   -0.61098E-04  2944   0.661E-03 0.112E-05
CGA:  26    -0.118500529797E+04   -0.34990E-04   -0.35006E-04  2944   0.720E-03 0.508E-06
CGA:  27    -0.118500533907E+04   -0.41100E-04   -0.41124E-04  2944   0.257E-03 0.187E-05
CGA:  28    -0.118500537066E+04   -0.31588E-04   -0.31539E-04  2944   0.214E-03 0.746E-06
CGA:  29    -0.118500539191E+04   -0.21255E-04   -0.21251E-04  2944   0.212E-03 0.107E-07
CGA:  30    -0.118500540096E+04   -0.90481E-05   -0.90629E-05  2944   0.174E-03 0.358E-06
CGA:  31    -0.118500541291E+04   -0.11947E-04   -0.11948E-04  2944   0.863E-04 0.431E-06
SDA:  32    -0.118500542208E+04   -0.91731E-05   -0.91868E-05  2944   0.797E-04-0.407E-06
  12 F= -.11850054E+04 E0= -.11849865E+04  d E =-.198414E+01  mag=   118.0000
       N       E                     dE             d eps       ncg     rms          ort
SDA:   1    -0.118387321535E+04    0.11322E+01    0.00000E+00  2944   0.458E+01 0.000E+00
CGA:   2    -0.118420071420E+04   -0.32750E+00   -0.32744E+00  2944   0.853E+01 0.272E-01
CGA:   3    -0.118466832434E+04   -0.46761E+00   -0.46059E+00  2944   0.560E+01-0.102E+00
CGA:   4    -0.118507734394E+04   -0.40902E+00   -0.41054E+00  2944   0.103E+01-0.182E+00
CGA:   5    -0.118513750602E+04   -0.60162E-01   -0.60055E-01  2944   0.903E+00-0.401E-02
CGA:   6    -0.118517930263E+04   -0.41797E-01   -0.41799E-01  2944   0.615E+00 0.284E-03
CGA:   7    -0.118522537843E+04   -0.46076E-01   -0.46071E-01  2944   0.220E+00 0.470E-03
CGA:   8    -0.118523486587E+04   -0.94874E-02   -0.94808E-02  2944   0.140E+00 0.365E-04
CGA:   9    -0.118524173637E+04   -0.68705E-02   -0.68954E-02  2944   0.498E-01 0.209E-03
CGA:  10    -0.118524651153E+04   -0.47752E-02   -0.47793E-02  2944   0.711E-01-0.109E-03
CGA:  11    -0.118524922004E+04   -0.27085E-02   -0.27138E-02  2944   0.232E-01-0.292E-04
CGA:  12    -0.118525100298E+04   -0.17829E-02   -0.17828E-02  2944   0.159E-01 0.937E-05
CGA:  13    -0.118525182798E+04   -0.82501E-03   -0.82521E-03  2944   0.150E-01 0.349E-05
CGA:  14    -0.118525278011E+04   -0.95212E-03   -0.95212E-03  2944   0.800E-02-0.310E-05
CGA:  15    -0.118525338388E+04   -0.60377E-03   -0.60351E-03  2944   0.658E-02 0.185E-04
CGA:  16    -0.118525361539E+04   -0.23152E-03   -0.23161E-03  2944   0.237E-02 0.153E-05
CGA:  17    -0.118525387379E+04   -0.25839E-03   -0.25776E-03  2944   0.284E-02 0.137E-04
CGA:  18    -0.118525401262E+04   -0.13883E-03   -0.13897E-03  2944   0.206E-02 0.591E-05
CGA:  19    -0.118525412243E+04   -0.10981E-03   -0.10994E-03  2944   0.629E-03 0.807E-05
CGA:  20    -0.118525416406E+04   -0.41627E-04   -0.41626E-04  2944   0.686E-03 0.229E-05
CGA:  21    -0.118525420008E+04   -0.36016E-04   -0.36055E-04  2944   0.439E-03 0.265E-05
CGA:  22    -0.118525423330E+04   -0.33228E-04   -0.33196E-04  2944   0.243E-03 0.284E-05
CGA:  23    -0.118525424469E+04   -0.11387E-04   -0.11405E-04  2944   0.208E-03 0.941E-06
CGA:  24    -0.118525425969E+04   -0.14997E-04   -0.14994E-04  2944   0.836E-04 0.330E-06
CGA:  25    -0.118525426574E+04   -0.60513E-05   -0.60505E-05  2944   0.146E-03 0.863E-07
  13 F= -.11852543E+04 E0= -.11852356E+04  d E =-.248844E+00  mag=   118.0000
       N       E                     dE             d eps       ncg     rms          ort
SDA:   1    -0.118490288326E+04    0.35138E+00    0.00000E+00  2944   0.151E+01 0.000E+00
CGA:   2    -0.118497293772E+04   -0.70054E-01   -0.69814E-01  2944   0.210E+01-0.234E-02
CGA:   3    -0.118518675829E+04   -0.21382E+00   -0.21551E+00  2944   0.123E+01-0.380E-01
CGA:   4    -0.118526061184E+04   -0.73854E-01   -0.73735E-01  2944   0.275E+00-0.972E-02
CGA:   5    -0.118528347423E+04   -0.22862E-01   -0.22675E-01  2944   0.269E+00 0.757E-02
CGA:   6    -0.118529410011E+04   -0.10626E-01   -0.10591E-01  2944   0.160E+00 0.418E-03
CGA:   7    -0.118530726339E+04   -0.13163E-01   -0.13167E-01  2944   0.554E-01-0.988E-04
CGA:   8    -0.118530962004E+04   -0.23567E-02   -0.23529E-02  2944   0.335E-01 0.507E-04
CGA:   9    -0.118531120990E+04   -0.15899E-02   -0.15942E-02  2944   0.155E-01 0.580E-04
CGA:  10    -0.118531279772E+04   -0.15878E-02   -0.15917E-02  2944   0.160E-01-0.864E-04
CGA:  11    -0.118531334677E+04   -0.54904E-03   -0.54944E-03  2944   0.644E-02-0.229E-05
CGA:  12    -0.118531383912E+04   -0.49235E-03   -0.49260E-03  2944   0.388E-02-0.152E-04
CGA:  13    -0.118531410951E+04   -0.27039E-03   -0.27036E-03  2944   0.554E-02 0.328E-05
CGA:  14    -0.118531438169E+04   -0.27219E-03   -0.27196E-03  2944   0.178E-02-0.293E-05
CGA:  15    -0.118531452604E+04   -0.14435E-03   -0.14423E-03  2944   0.151E-02 0.681E-05
CGA:  16    -0.118531457975E+04   -0.53706E-04   -0.53799E-04  2944   0.726E-03 0.351E-05
CGA:  17    -0.118531466973E+04   -0.89982E-04   -0.89137E-04  2944   0.659E-03 0.143E-04
CGA:  18    -0.118531469793E+04   -0.28205E-04   -0.28309E-04  2944   0.454E-03 0.468E-05
CGA:  19    -0.118531472459E+04   -0.26650E-04   -0.26695E-04  2944   0.157E-03 0.586E-05
CGA:  20    -0.118531473725E+04   -0.12660E-04   -0.12642E-04  2944   0.232E-03 0.126E-05
CGA:  21    -0.118531474769E+04   -0.10444E-04   -0.10467E-04  2944   0.881E-04 0.986E-06
CGA:  22    -0.118531475509E+04   -0.74051E-05   -0.74084E-05  2944   0.884E-04-0.161E-06
  14 F= -.11853148E+04 E0= -.11852960E+04  d E =-.604894E-01  mag=   118.0000
       N       E                     dE             d eps       ncg     rms          ort
SDA:   1    -0.118521142515E+04    0.10332E+00    0.00000E+00  2944   0.535E+00 0.000E+00
CGA:   2    -0.118523060398E+04   -0.19179E-01   -0.19287E-01  2944   0.533E+00-0.161E-02
CGA:   3    -0.118530927306E+04   -0.78669E-01   -0.78788E-01  2944   0.185E+00-0.143E-02
CGA:   4    -0.118532124880E+04   -0.11976E-01   -0.11975E-01  2944   0.687E-01-0.121E-03
CGA:   5    -0.118533124946E+04   -0.10001E-01   -0.10013E-01  2944   0.383E-01-0.181E-03
CGA:   6    -0.118533331159E+04   -0.20621E-02   -0.20611E-02  2944   0.380E-01 0.381E-04
CGA:   7    -0.118533477422E+04   -0.14626E-02   -0.14662E-02  2944   0.104E-01 0.243E-04
CGA:   8    -0.118533562348E+04   -0.84927E-03   -0.84952E-03  2944   0.404E-02-0.673E-05
CGA:   9    -0.118533601468E+04   -0.39119E-03   -0.39115E-03  2944   0.375E-02 0.266E-05
CGA:  10    -0.118533617297E+04   -0.15830E-03   -0.15821E-03  2944   0.264E-02-0.161E-06
CGA:  11    -0.118533630505E+04   -0.13207E-03   -0.13215E-03  2944   0.107E-02-0.361E-06
CGA:  12    -0.118533645229E+04   -0.14724E-03   -0.14729E-03  2944   0.482E-03-0.714E-06
CGA:  13    -0.118533648628E+04   -0.33996E-04   -0.34002E-04  2944   0.798E-03 0.293E-05
CGA:  14    -0.118533652177E+04   -0.35484E-04   -0.35580E-04  2944   0.230E-03 0.381E-05
CGA:  15    -0.118533654583E+04   -0.24060E-04   -0.23841E-04  2944   0.163E-03 0.666E-05
CGA:  16    -0.118533656080E+04   -0.14967E-04   -0.14891E-04  2944   0.213E-03 0.466E-05
CGA:  17    -0.118533656791E+04   -0.71178E-05   -0.72236E-05  2944   0.671E-04 0.248E-05
  15 F= -.11853366E+04 E0= -.11853177E+04  d E =-.218128E-01  mag=   118.0000
       N       E                     dE             d eps       ncg     rms          ort
SDA:   1    -0.118518498774E+04    0.15157E+00    0.00000E+00  2944   0.439E+00 0.000E+00
CGA:   2    -0.118525712558E+04   -0.72138E-01   -0.72630E-01  2944   0.952E+00-0.518E-02
CGA:   3    -0.118530307262E+04   -0.45947E-01   -0.45800E-01  2944   0.598E+00 0.557E-04
CGA:   4    -0.118532266452E+04   -0.19592E-01   -0.19225E-01  2944   0.926E-01 0.600E-02
CGA:   5    -0.118533440073E+04   -0.11736E-01   -0.11802E-01  2944   0.909E-01-0.113E-02
CGA:   6    -0.118534100033E+04   -0.65996E-02   -0.66020E-02  2944   0.381E-01 0.553E-03
CGA:   7    -0.118534221495E+04   -0.12146E-02   -0.12149E-02  2944   0.200E-01 0.384E-04
CGA:   8    -0.118534383318E+04   -0.16182E-02   -0.16178E-02  2944   0.876E-02 0.485E-04
CGA:   9    -0.118534449559E+04   -0.66241E-03   -0.66246E-03  2944   0.433E-02-0.112E-04
CGA:  10    -0.118534469948E+04   -0.20389E-03   -0.20380E-03  2944   0.452E-02 0.213E-05
CGA:  11    -0.118534497785E+04   -0.27837E-03   -0.27830E-03  2944   0.128E-02-0.348E-05
CGA:  12    -0.118534514336E+04   -0.16551E-03   -0.16579E-03  2944   0.182E-02-0.484E-05
CGA:  13    -0.118534521056E+04   -0.67204E-04   -0.67152E-04  2944   0.829E-03 0.137E-06
CGA:  14    -0.118534525035E+04   -0.39785E-04   -0.39838E-04  2944   0.378E-03 0.266E-05
CGA:  15    -0.118534530032E+04   -0.49970E-04   -0.49602E-04  2944   0.294E-03 0.626E-05
CGA:  16    -0.118534531420E+04   -0.13881E-04   -0.13971E-04  2944   0.305E-03 0.305E-05
CGA:  17    -0.118534533283E+04   -0.18637E-04   -0.18696E-04  2944   0.101E-03 0.474E-05
CGA:  18    -0.118534534309E+04   -0.10254E-04   -0.10165E-04  2944   0.725E-04 0.334E-05
CGA:  19    -0.118534534639E+04   -0.33062E-05   -0.33210E-05  2944   0.706E-04 0.514E-06
  16 F= -.11853453E+04 E0= -.11853264E+04  d E =-.877848E-02  mag=   118.0000
       N       E                     dE             d eps       ncg     rms          ort
SDA:   1    -0.118532008925E+04    0.25254E-01    0.00000E+00  2944   0.171E+00 0.000E+00
CGA:   2    -0.118532542286E+04   -0.53336E-02   -0.53534E-02  2944   0.104E+00-0.449E-03
CGA:   3    -0.118533377177E+04   -0.83489E-02   -0.83392E-02  2944   0.113E+00 0.580E-03
CGA:   4    -0.118534312558E+04   -0.93538E-02   -0.93554E-02  2944   0.192E-01-0.124E-03
CGA:   5    -0.118534498937E+04   -0.18638E-02   -0.18574E-02  2944   0.253E-01 0.195E-03
CGA:   6    -0.118534592119E+04   -0.93182E-03   -0.93179E-03  2944   0.131E-01 0.236E-04
CGA:   7    -0.118534661682E+04   -0.69563E-03   -0.69642E-03  2944   0.290E-02 0.299E-04
CGA:   8    -0.118534693676E+04   -0.31994E-03   -0.31908E-03  2944   0.152E-02 0.213E-04
CGA:   9    -0.118534706493E+04   -0.12817E-03   -0.12808E-03  2944   0.104E-02 0.845E-05
CGA:  10    -0.118534709684E+04   -0.31908E-04   -0.32019E-04  2944   0.476E-03 0.168E-05
CGA:  11    -0.118534713660E+04   -0.39758E-04   -0.39765E-04  2944   0.214E-03-0.170E-06
CGA:  12    -0.118534716185E+04   -0.25248E-04   -0.25292E-04  2944   0.176E-03-0.960E-06
CGA:  13    -0.118534717523E+04   -0.13378E-04   -0.13382E-04  2944   0.856E-04-0.163E-05
CGA:  14    -0.118534717903E+04   -0.37990E-05   -0.38040E-05  2944   0.917E-04 0.166E-06
  17 F= -.11853472E+04 E0= -.11853283E+04  d E =-.183263E-02  mag=   118.0000
       N       E                     dE             d eps       ncg     rms          ort
SDA:   1    -0.118466481862E+04    0.68236E+00    0.00000E+00  2944   0.194E+01 0.000E+00
CGA:   2    -0.118496656314E+04   -0.30174E+00   -0.29542E+00  2944   0.513E+01 0.809E-01
CGA:   3    -0.118514717488E+04   -0.18061E+00   -0.17836E+00  2944   0.143E+01 0.161E-01
CGA:   4    -0.118524591126E+04   -0.98736E-01   -0.99060E-01  2944   0.653E+00 0.266E-01
CGA:   5    -0.118531094064E+04   -0.65029E-01   -0.64912E-01  2944   0.414E+00 0.389E-02
CGA:   6    -0.118532744999E+04   -0.16509E-01   -0.16459E-01  2944   0.244E+00 0.259E-03
CGA:   7    -0.118533813854E+04   -0.10689E-01   -0.10701E-01  2944   0.868E-01-0.660E-04
CGA:   8    -0.118534817721E+04   -0.10039E-01   -0.10054E-01  2944   0.340E-01-0.310E-03
CGA:   9    -0.118534943652E+04   -0.12593E-02   -0.12553E-02  2944   0.239E-01 0.609E-04
CGA:  10    -0.118535093815E+04   -0.15016E-02   -0.15015E-02  2944   0.114E-01 0.379E-06
CGA:  11    -0.118535192687E+04   -0.98872E-03   -0.98830E-03  2944   0.723E-02 0.164E-04
CGA:  12    -0.118535228080E+04   -0.35393E-03   -0.35387E-03  2944   0.671E-02-0.234E-05
CGA:  13    -0.118535261034E+04   -0.32954E-03   -0.32939E-03  2944   0.227E-02-0.433E-05
CGA:  14    -0.118535285222E+04   -0.24188E-03   -0.24201E-03  2944   0.215E-02-0.320E-05
CGA:  15    -0.118535295950E+04   -0.10728E-03   -0.10723E-03  2944   0.215E-02 0.402E-06
CGA:  16    -0.118535307214E+04   -0.11264E-03   -0.11274E-03  2944   0.639E-03 0.400E-05
CGA:  17    -0.118535314195E+04   -0.69810E-04   -0.69699E-04  2944   0.870E-03 0.285E-05
CGA:  18    -0.118535318779E+04   -0.45843E-04   -0.45914E-04  2944   0.815E-03 0.345E-05
CGA:  19    -0.118535322609E+04   -0.38299E-04   -0.38330E-04  2944   0.204E-03 0.247E-05
CGA:  20    -0.118535325217E+04   -0.26079E-04   -0.26086E-04  2944   0.297E-03-0.132E-06
CGA:  21    -0.118535326300E+04   -0.10826E-04   -0.10808E-04  2944   0.171E-03-0.403E-06
CGA:  22    -0.118535327768E+04   -0.14681E-04   -0.14678E-04  2944   0.862E-04 0.173E-06
CGA:  23    -0.118535328416E+04   -0.64823E-05   -0.64847E-05  2944   0.883E-04-0.621E-06
  18 F= -.11853533E+04 E0= -.11853343E+04  d E =-.610513E-02  mag=   118.0000
       N       E                     dE             d eps       ncg     rms          ort
SDA:   1    -0.118497105340E+04    0.38222E+00    0.00000E+00  2944   0.148E+01 0.000E+00
CGA:   2    -0.118505208185E+04   -0.81028E-01   -0.81779E-01  2944   0.232E+01 0.110E-01
CGA:   3    -0.118521770091E+04   -0.16562E+00   -0.16554E+00  2944   0.123E+01 0.369E-01
CGA:   4    -0.118529168598E+04   -0.73985E-01   -0.73436E-01  2944   0.345E+00-0.160E-01
CGA:   5    -0.118534060751E+04   -0.48922E-01   -0.49150E-01  2944   0.129E+00-0.311E-02
CGA:   6    -0.118535256101E+04   -0.11954E-01   -0.11920E-01  2944   0.587E-01 0.116E-02
CGA:   7    -0.118535692052E+04   -0.43595E-02   -0.43596E-02  2944   0.402E-01 0.154E-03
CGA:   8    -0.118535848771E+04   -0.15672E-02   -0.15626E-02  2944   0.279E-01 0.311E-04
CGA:   9    -0.118536005025E+04   -0.15625E-02   -0.15617E-02  2944   0.639E-02-0.196E-04
CGA:  10    -0.118536076806E+04   -0.71781E-03   -0.72078E-03  2944   0.468E-02-0.642E-04
CGA:  11    -0.118536122539E+04   -0.45733E-03   -0.45732E-03  2944   0.385E-02-0.909E-06
CGA:  12    -0.118536134512E+04   -0.11973E-03   -0.11956E-03  2944   0.177E-02 0.317E-07
CGA:  13    -0.118536148292E+04   -0.13780E-03   -0.13782E-03  2944   0.134E-02-0.195E-05
CGA:  14    -0.118536163636E+04   -0.15344E-03   -0.15322E-03  2944   0.635E-03 0.498E-05
CGA:  15    -0.118536168752E+04   -0.51163E-04   -0.51162E-04  2944   0.107E-02 0.294E-06
CGA:  16    -0.118536173088E+04   -0.43362E-04   -0.43347E-04  2944   0.445E-03-0.635E-06
CGA:  17    -0.118536177826E+04   -0.47374E-04   -0.47355E-04  2944   0.317E-03 0.499E-06
CGA:  18    -0.118536180795E+04   -0.29692E-04   -0.29729E-04  2944   0.204E-03-0.200E-05
CGA:  19    -0.118536181800E+04   -0.10053E-04   -0.10048E-04  2944   0.232E-03-0.270E-06
CGA:  20    -0.118536183168E+04   -0.13684E-04   -0.13674E-04  2944   0.114E-03-0.572E-06
CGA:  21    -0.118536184327E+04   -0.11582E-04   -0.11586E-04  2944   0.532E-04-0.158E-06
CGA:  22    -0.118536184851E+04   -0.52484E-05   -0.52329E-05  2944   0.921E-04 0.692E-06
  19 F= -.11853618E+04 E0= -.11853429E+04  d E =-.856436E-02  mag=   118.0000
       N       E                     dE             d eps       ncg     rms          ort
SDA:   1    -0.115970189117E+04    0.25660E+02    0.00000E+00  2944   0.744E+02 0.000E+00
CGA:   2    -0.117242654019E+04   -0.12725E+02   -0.12217E+02  2944   0.971E+02 0.753E+01
CGA:   3    -0.117804919455E+04   -0.56227E+01   -0.50561E+01  2944   0.585E+02-0.294E+01
CGA:   4    -0.118106752201E+04   -0.30183E+01   -0.31676E+01  2944   0.324E+02-0.353E+01
CGA:   5    -0.118376537579E+04   -0.26979E+01   -0.28148E+01  2944   0.146E+02-0.463E+01
CGA:   6    -0.118464273502E+04   -0.87736E+00   -0.87626E+00  2944   0.441E+01-0.756E-01
CGA:   7    -0.118482646071E+04   -0.18373E+00   -0.19492E+00  2944   0.630E+01-0.106E+00
CGA:   8    -0.118512627087E+04   -0.29981E+00   -0.29337E+00  2944   0.222E+01-0.820E-02
CGA:   9    -0.118523038700E+04   -0.10412E+00   -0.10676E+00  2944   0.625E+00-0.829E-02
CGA:  10    -0.118529794761E+04   -0.67561E-01   -0.67707E-01  2944   0.909E+00-0.293E-02
CGA:  11    -0.118532393510E+04   -0.25987E-01   -0.27217E-01  2944   0.543E+00-0.284E-01
CGA:  12    -0.118535470233E+04   -0.30767E-01   -0.30637E-01  2944   0.148E+00-0.256E-02
CGA:  13    -0.118536969155E+04   -0.14989E-01   -0.14863E-01  2944   0.203E+00 0.338E-02
CGA:  14    -0.118537648925E+04   -0.67977E-02   -0.68470E-02  2944   0.126E+00-0.840E-03
CGA:  15    -0.118538570723E+04   -0.92180E-02   -0.92032E-02  2944   0.688E-01 0.296E-02
CGA:  16    -0.118539085599E+04   -0.51488E-02   -0.51470E-02  2944   0.600E-01 0.473E-03
CGA:  17    -0.118539284982E+04   -0.19938E-02   -0.20194E-02  2944   0.381E-01-0.388E-03
CGA:  18    -0.118539725011E+04   -0.44003E-02   -0.43949E-02  2944   0.235E-01 0.104E-03
CGA:  19    -0.118539835968E+04   -0.11096E-02   -0.11136E-02  2944   0.236E-01 0.128E-04
CGA:  20    -0.118539957401E+04   -0.12143E-02   -0.12160E-02  2944   0.124E-01 0.184E-04
CGA:  21    -0.118540072101E+04   -0.11470E-02   -0.11437E-02  2944   0.121E-01 0.108E-03
CGA:  22    -0.118540121173E+04   -0.49072E-03   -0.49101E-03  2944   0.922E-02 0.264E-05
CGA:  23    -0.118540185994E+04   -0.64821E-03   -0.64816E-03  2944   0.535E-02 0.232E-04
CGA:  24    -0.118540227030E+04   -0.41036E-03   -0.41042E-03  2944   0.623E-02-0.430E-05
CGA:  25    -0.118540251065E+04   -0.24035E-03   -0.24124E-03  2944   0.369E-02-0.140E-05
CGA:  26    -0.118540290182E+04   -0.39118E-03   -0.39106E-03  2944   0.317E-02 0.413E-05
CGA:  27    -0.118540306833E+04   -0.16651E-03   -0.16671E-03  2944   0.314E-02 0.572E-05
CGA:  28    -0.118540321455E+04   -0.14622E-03   -0.14610E-03  2944   0.166E-02 0.454E-06
CGA:  29    -0.118540338530E+04   -0.17075E-03   -0.17067E-03  2944   0.132E-02 0.136E-05
CGA:  30    -0.118540343398E+04   -0.48682E-04   -0.48550E-04  2944   0.100E-02-0.211E-05
CGA:  31    -0.118540352283E+04   -0.88851E-04   -0.88972E-04  2944   0.530E-03-0.622E-05
SDA:  32    -0.118540355478E+04   -0.31945E-04   -0.31900E-04  2944   0.540E-03-0.461E-05
CGA:  33    -0.118540356606E+04   -0.11286E-04   -0.11291E-04  2944   0.150E-03-0.301E-06
CGA:  34    -0.118540360262E+04   -0.36554E-04   -0.37347E-04  2944   0.200E-03-0.448E-05
CGA:  35    -0.118540361866E+04   -0.16044E-04   -0.16057E-04  2944   0.171E-03-0.187E-05
CGA:  36    -0.118540362431E+04   -0.56467E-05   -0.55865E-05  2944   0.102E-03-0.123E-05
  20 F= -.11854036E+04 E0= -.11853846E+04  d E =-.417758E-01  mag=   118.0000
       N       E                     dE             d eps       ncg     rms          ort
SDA:   1    -0.114997193825E+04    0.35432E+02    0.00000E+00  2944   0.894E+02 0.000E+00
CGA:   2    -0.116399503203E+04   -0.14023E+02   -0.12308E+02  2944   0.171E+03 0.252E+02
CGA:   3    -0.117299934008E+04   -0.90043E+01   -0.10586E+02  2944   0.568E+02 0.264E+01
CGA:   4    -0.117656606083E+04   -0.35667E+01   -0.32560E+01  2944   0.711E+02-0.275E+02
CGA:   5    -0.117824727957E+04   -0.16812E+01   -0.17650E+01  2944   0.391E+02-0.800E+00
CGA:   6    -0.118067344981E+04   -0.24262E+01   -0.14250E+01  2944   0.148E+02-0.707E+00
CGA:   7    -0.118094426976E+04   -0.27082E+00   -0.46040E+00  2944   0.129E+02-0.400E+01
CGA:   8    -0.118143489255E+04   -0.49062E+00   -0.49031E+00  2944   0.228E+02 0.276E-01
CGA:   9    -0.118192259538E+04   -0.48770E+00   -0.47226E+00  2944   0.346E+01-0.264E+01
CGA:  10    -0.118213090283E+04   -0.20831E+00   -0.21401E+00  2944   0.406E+01-0.850E+00
CGA:  11    -0.118217787236E+04   -0.46970E-01   -0.51674E-01  2944   0.227E+01-0.256E+00
CGA:  12    -0.118223268745E+04   -0.54815E-01   -0.57000E-01  2944   0.348E+01-0.556E-01
CGA:  13    -0.118234363657E+04   -0.11095E+00   -0.12060E+00  2944   0.136E+01-0.457E-01
CGA:  14    -0.118237913436E+04   -0.35498E-01   -0.36839E-01  2944   0.140E+01-0.344E-01
CGA:  15    -0.118242766371E+04   -0.48529E-01   -0.49859E-01  2944   0.740E+00-0.970E-02
CGA:  16    -0.118244861285E+04   -0.20949E-01   -0.21652E-01  2944   0.622E+00-0.131E-01
CGA:  17    -0.118246871793E+04   -0.20105E-01   -0.20240E-01  2944   0.435E+00-0.134E-02
CGA:  18    -0.118248884241E+04   -0.20124E-01   -0.20324E-01  2944   0.397E+00 0.748E-02
CGA:  19    -0.118249882874E+04   -0.99863E-02   -0.10520E-01  2944   0.191E+00-0.112E-01
CGA:  20    -0.118251244173E+04   -0.13613E-01   -0.13690E-01  2944   0.124E+00-0.301E-02
CGA:  21    -0.118251533327E+04   -0.28915E-02   -0.29563E-02  2944   0.630E-01-0.160E-02
CGA:  22    -0.118252122126E+04   -0.58880E-02   -0.57746E-02  2944   0.346E-01 0.258E-02
CGA:  23    -0.118252305915E+04   -0.18379E-02   -0.18399E-02  2944   0.537E-01 0.228E-03
CGA:  24    -0.118252542462E+04   -0.23655E-02   -0.23752E-02  2944   0.146E-01 0.260E-03
CGA:  25    -0.118252618884E+04   -0.76422E-03   -0.76424E-03  2944   0.134E-01 0.108E-04
CGA:  26    -0.118252675750E+04   -0.56867E-03   -0.56879E-03  2944   0.122E-01 0.855E-05
CGA:  27    -0.118252738953E+04   -0.63203E-03   -0.63250E-03  2944   0.625E-02 0.137E-03
CGA:  28    -0.118252788481E+04   -0.49527E-03   -0.49358E-03  2944   0.932E-02 0.559E-04
CGA:  29    -0.118252816378E+04   -0.27897E-03   -0.27889E-03  2944   0.343E-02-0.704E-06
CGA:  30    -0.118252845185E+04   -0.28807E-03   -0.28782E-03  2944   0.318E-02 0.724E-05
CGA:  31    -0.118252858426E+04   -0.13241E-03   -0.13263E-03  2944   0.371E-02 0.275E-05
SDA:  32    -0.118252881778E+04   -0.23352E-03   -0.23355E-03  2944   0.168E-02-0.513E-05
CGA:  33    -0.118252890962E+04   -0.91835E-04   -0.91835E-04  2944   0.897E-03-0.420E-05
CGA:  34    -0.118252895381E+04   -0.44197E-04   -0.44194E-04  2944   0.128E-02-0.126E-05
CGA:  35    -0.118252909131E+04   -0.13750E-03   -0.13812E-03  2944   0.907E-03-0.118E-04
CGA:  36    -0.118252916068E+04   -0.69373E-04   -0.69390E-04  2944   0.484E-03-0.133E-05
CGA:  37    -0.118252919798E+04   -0.37297E-04   -0.37260E-04  2944   0.346E-03 0.170E-05
CGA:  38    -0.118252923043E+04   -0.32449E-04   -0.32435E-04  2944   0.414E-03 0.420E-06
CGA:  39    -0.118252924672E+04   -0.16299E-04   -0.16322E-04  2944   0.338E-03 0.104E-05
CGA:  40    -0.118252927368E+04   -0.26955E-04   -0.26921E-04  2944   0.116E-03 0.163E-05
CGA:  41    -0.118252928893E+04   -0.15253E-04   -0.15249E-04  2944   0.777E-04 0.228E-07
CGA:  42    -0.118252929590E+04   -0.69713E-05   -0.69728E-05  2944   0.168E-03-0.806E-07
  21 F= -.11825293E+04 E0= -.11825107E+04  d E =0.287433E+01  mag=   118.0000
       N       E                     dE             d eps       ncg     rms          ort
SDA:   1    -0.116861465507E+04    0.13915E+02    0.00000E+00  2944   0.569E+02 0.000E+00
CGA:   2    -0.117218332268E+04   -0.35687E+01   -0.45631E+01  2944   0.174E+03-0.337E+02
CGA:   3    -0.117486927367E+04   -0.26860E+01   -0.55653E+01  2944   0.915E+02-0.651E+02
CGA:   4    -0.117955477100E+04   -0.46855E+01   -0.49634E+01  2944   0.417E+02-0.298E+01
CGA:   5    -0.118179849629E+04   -0.22437E+01   -0.17053E+01  2944   0.244E+02-0.596E+01
CGA:   6    -0.118287055570E+04   -0.10721E+01   -0.10523E+01  2944   0.197E+02-0.748E+00
CGA:   7    -0.118354830941E+04   -0.67775E+00   -0.58756E+00  2944   0.209E+02 0.881E+00
CGA:   8    -0.118425125889E+04   -0.70295E+00   -0.79649E+00  2944   0.116E+02-0.759E+00
CGA:   9    -0.118452961498E+04   -0.27836E+00   -0.32050E+00  2944   0.948E+01-0.820E+00
CGA:  10    -0.118476398746E+04   -0.23437E+00   -0.16844E+00  2944   0.209E+01 0.236E+01
CGA:  11    -0.118481799647E+04   -0.54009E-01   -0.50587E-01  2944   0.184E+01 0.132E+00
CGA:  12    -0.118487802461E+04   -0.60028E-01   -0.57901E-01  2944   0.201E+01 0.242E-01
CGA:  13    -0.118491103674E+04   -0.33012E-01   -0.37825E-01  2944   0.153E+01-0.202E+00
CGA:  14    -0.118497303190E+04   -0.61995E-01   -0.63092E-01  2944   0.299E+01 0.714E-01
CGA:  15    -0.118503759531E+04   -0.64563E-01   -0.64323E-01  2944   0.628E+00-0.270E-01
CGA:  16    -0.118505727654E+04   -0.19681E-01   -0.19662E-01  2944   0.580E+00-0.385E-03
CGA:  17    -0.118507425078E+04   -0.16974E-01   -0.18016E-01  2944   0.225E+00-0.242E-02
CGA:  18    -0.118508587578E+04   -0.11625E-01   -0.11542E-01  2944   0.204E+00 0.130E-01
CGA:  19    -0.118509329296E+04   -0.74172E-02   -0.73819E-02  2944   0.176E+00-0.310E-03
CGA:  20    -0.118510328825E+04   -0.99953E-02   -0.98189E-02  2944   0.103E+00 0.133E-01
CGA:  21    -0.118510815091E+04   -0.48627E-02   -0.48758E-02  2944   0.126E+00 0.154E-02
CGA:  22    -0.118511325770E+04   -0.51068E-02   -0.50916E-02  2944   0.278E-01-0.615E-03
CGA:  23    -0.118511511507E+04   -0.18574E-02   -0.18572E-02  2944   0.404E-01 0.394E-05
CGA:  24    -0.118511665612E+04   -0.15410E-02   -0.15523E-02  2944   0.241E-01 0.290E-03
CGA:  25    -0.118511800835E+04   -0.13522E-02   -0.13508E-02  2944   0.809E-02 0.114E-03
CGA:  26    -0.118511853788E+04   -0.52953E-03   -0.52892E-03  2944   0.904E-02 0.253E-04
CGA:  27    -0.118511882545E+04   -0.28757E-03   -0.28822E-03  2944   0.355E-02 0.153E-05
CGA:  28    -0.118511920519E+04   -0.37973E-03   -0.37912E-03  2944   0.229E-02 0.803E-05
CGA:  29    -0.118511934796E+04   -0.14277E-03   -0.14261E-03  2944   0.314E-02 0.940E-05
CGA:  30    -0.118511946719E+04   -0.11923E-03   -0.11937E-03  2944   0.116E-02 0.811E-05
CGA:  31    -0.118511957466E+04   -0.10747E-03   -0.10704E-03  2944   0.114E-02 0.915E-05
CGA:  32    -0.118511964225E+04   -0.67595E-04   -0.67521E-04  2944   0.113E-02 0.955E-05
SDA:  33    -0.118511967860E+04   -0.36351E-04   -0.36513E-04  2944   0.345E-03 0.362E-05
CGA:  34    -0.118511969935E+04   -0.20746E-04   -0.20756E-04  2944   0.295E-03-0.264E-05
CGA:  35    -0.118511971085E+04   -0.11502E-04   -0.11501E-04  2944   0.212E-03-0.136E-05
CGA:  36    -0.118511973478E+04   -0.23933E-04   -0.23923E-04  2944   0.206E-03-0.103E-05
CGA:  37    -0.118511975363E+04   -0.18844E-04   -0.18940E-04  2944   0.122E-03-0.302E-05
CGA:  38    -0.118511976282E+04   -0.91986E-05   -0.91864E-05  2944   0.174E-03-0.227E-06
  22 F= -.11851198E+04 E0= -.11851016E+04  d E =-.259047E+01  mag=   118.0000
       N       E                     dE             d eps       ncg     rms          ort
SDA:   1    -0.118437889570E+04    0.74086E+00    0.00000E+00  2944   0.233E+01 0.000E+00
CGA:   2    -0.118479058152E+04   -0.41169E+00   -0.42087E+00  2944   0.107E+02-0.824E-01
CGA:   3    -0.118511188163E+04   -0.32130E+00   -0.32730E+00  2944   0.171E+01-0.164E+00
CGA:   4    -0.118520082361E+04   -0.88942E-01   -0.89040E-01  2944   0.541E+00 0.262E-02
CGA:   5    -0.118523858587E+04   -0.37762E-01   -0.37892E-01  2944   0.976E+00-0.915E-02
CGA:   6    -0.118527754130E+04   -0.38955E-01   -0.38664E-01  2944   0.255E+00-0.809E-03
CGA:   7    -0.118529901877E+04   -0.21477E-01   -0.21743E-01  2944   0.784E-01-0.858E-02
CGA:   8    -0.118530464691E+04   -0.56281E-02   -0.56371E-02  2944   0.680E-01-0.472E-03
CGA:   9    -0.118530715691E+04   -0.25100E-02   -0.25121E-02  2944   0.476E-01-0.115E-04
CGA:  10    -0.118531022203E+04   -0.30651E-02   -0.30675E-02  2944   0.187E-01-0.383E-03
CGA:  11    -0.118531204630E+04   -0.18243E-02   -0.18144E-02  2944   0.765E-02 0.238E-03
CGA:  12    -0.118531283308E+04   -0.78678E-03   -0.78833E-03  2944   0.157E-01-0.345E-04
CGA:  13    -0.118531335555E+04   -0.52247E-03   -0.52397E-03  2944   0.513E-02-0.133E-04
CGA:  14    -0.118531379705E+04   -0.44150E-03   -0.44100E-03  2944   0.172E-02 0.169E-04
CGA:  15    -0.118531404213E+04   -0.24508E-03   -0.24592E-03  2944   0.213E-02-0.111E-04
CGA:  16    -0.118531418990E+04   -0.14777E-03   -0.14778E-03  2944   0.153E-02-0.580E-05
CGA:  17    -0.118531423924E+04   -0.49339E-04   -0.49158E-04  2944   0.824E-03-0.174E-05
CGA:  18    -0.118531430609E+04   -0.66857E-04   -0.66940E-04  2944   0.269E-03-0.513E-05
CGA:  19    -0.118531434925E+04   -0.43157E-04   -0.42996E-04  2944   0.215E-03 0.165E-05
CGA:  20    -0.118531436389E+04   -0.14641E-04   -0.14645E-04  2944   0.189E-03 0.949E-06
CGA:  21    -0.118531437103E+04   -0.71361E-05   -0.71608E-05  2944   0.133E-03 0.564E-06
  23 F= -.11853144E+04 E0= -.11852960E+04  d E =-.194608E+00  mag=   118.0000
       N       E                     dE             d eps       ncg     rms          ort
SDA:   1    -0.118456483733E+04    0.74953E+00    0.00000E+00  2944   0.226E+01 0.000E+00
CGA:   2    -0.118479330011E+04   -0.22846E+00   -0.22603E+00  2944   0.779E+01 0.733E-01
CGA:   3    -0.118523342658E+04   -0.44013E+00   -0.44231E+00  2944   0.122E+01 0.235E-01
CGA:   4    -0.118530205116E+04   -0.68625E-01   -0.68102E-01  2944   0.531E+00-0.861E-02
CGA:   5    -0.118534164268E+04   -0.39592E-01   -0.39556E-01  2944   0.911E+00 0.418E-02
CGA:   6    -0.118537675702E+04   -0.35114E-01   -0.35610E-01  2944   0.201E+00-0.653E-02
CGA:   7    -0.118539107120E+04   -0.14314E-01   -0.14292E-01  2944   0.977E-01 0.424E-02
CGA:   8    -0.118539618359E+04   -0.51124E-02   -0.50997E-02  2944   0.934E-01-0.144E-03
CGA:   9    -0.118539992556E+04   -0.37420E-02   -0.37636E-02  2944   0.331E-01-0.189E-03
CGA:  10    -0.118540279764E+04   -0.28721E-02   -0.28776E-02  2944   0.154E-01-0.202E-03
CGA:  11    -0.118540371146E+04   -0.91382E-03   -0.91403E-03  2944   0.242E-01 0.119E-04
CGA:  12    -0.118540492218E+04   -0.12107E-02   -0.12103E-02  2944   0.593E-02 0.313E-05
CGA:  13    -0.118540557467E+04   -0.65250E-03   -0.65136E-03  2944   0.774E-02 0.245E-04
CGA:  14    -0.118540585781E+04   -0.28313E-03   -0.28294E-03  2944   0.449E-02 0.317E-05
CGA:  15    -0.118540610720E+04   -0.24940E-03   -0.24936E-03  2944   0.166E-02-0.592E-06
CGA:  16    -0.118540631573E+04   -0.20853E-03   -0.20913E-03  2944   0.274E-02-0.102E-04
CGA:  17    -0.118540639352E+04   -0.77786E-04   -0.77737E-04  2944   0.856E-03-0.460E-05
CGA:  18    -0.118540648670E+04   -0.93178E-04   -0.93442E-04  2944   0.502E-03-0.642E-05
CGA:  19    -0.118540651290E+04   -0.26202E-04   -0.26170E-04  2944   0.514E-03-0.218E-05
CGA:  20    -0.118540653545E+04   -0.22549E-04   -0.22499E-04  2944   0.258E-03-0.247E-05
CGA:  21    -0.118540656038E+04   -0.24931E-04   -0.24936E-04  2944   0.138E-03-0.303E-06
CGA:  22    -0.118540656654E+04   -0.61578E-05   -0.61606E-05  2944   0.139E-03 0.599E-07
  24 F= -.11854066E+04 E0= -.11853879E+04  d E =-.921955E-01  mag=   118.0000
       N       E                     dE             d eps       ncg     rms          ort
SDA:   1    -0.118533598547E+04    0.70575E-01    0.00000E+00  2944   0.432E+00 0.000E+00
CGA:   2    -0.118535906320E+04   -0.23078E-01   -0.23150E-01  2944   0.453E+00 0.120E-02
CGA:   3    -0.118538365049E+04   -0.24587E-01   -0.24629E-01  2944   0.537E+00 0.832E-03
CGA:   4    -0.118542160532E+04   -0.37955E-01   -0.37988E-01  2944   0.789E-01-0.394E-02
CGA:   5    -0.118542795548E+04   -0.63502E-02   -0.63705E-02  2944   0.482E-01-0.921E-03
CGA:   6    -0.118543213046E+04   -0.41750E-02   -0.41724E-02  2944   0.604E-01 0.794E-04
CGA:   7    -0.118543385481E+04   -0.17243E-02   -0.17133E-02  2944   0.154E-01 0.189E-03
CGA:   8    -0.118543495825E+04   -0.11034E-02   -0.11040E-02  2944   0.641E-02-0.714E-04
CGA:   9    -0.118543556875E+04   -0.61049E-03   -0.61104E-03  2944   0.304E-02-0.192E-04
CGA:  10    -0.118543570146E+04   -0.13271E-03   -0.13274E-03  2944   0.356E-02-0.277E-05
CGA:  11    -0.118543593711E+04   -0.23565E-03   -0.23564E-03  2944   0.965E-03-0.874E-05
CGA:  12    -0.118543605126E+04   -0.11416E-03   -0.11387E-03  2944   0.817E-03 0.546E-05
CGA:  13    -0.118543608549E+04   -0.34230E-04   -0.34262E-04  2944   0.827E-03 0.807E-06
CGA:  14    -0.118543613983E+04   -0.54334E-04   -0.54343E-04  2944   0.319E-03 0.401E-05
CGA:  15    -0.118543616695E+04   -0.27120E-04   -0.27118E-04  2944   0.188E-03 0.707E-07
CGA:  16    -0.118543618025E+04   -0.13308E-04   -0.13310E-04  2944   0.292E-03-0.797E-06
CGA:  17    -0.118543619129E+04   -0.11034E-04   -0.10984E-04  2944   0.943E-04-0.163E-05
CGA:  18    -0.118543620338E+04   -0.12090E-04   -0.12282E-04  2944   0.404E-04-0.312E-05
CGA:  19    -0.118543620552E+04   -0.21406E-05   -0.21283E-05  2944   0.575E-04-0.814E-06
  25 F= -.11854362E+04 E0= -.11854174E+04  d E =-.296390E-01  mag=   118.0000
       N       E                     dE             d eps       ncg     rms          ort
SDA:   1    -0.118518282242E+04    0.25338E+00    0.00000E+00  2944   0.801E+00 0.000E+00
CGA:   2    -0.118526531919E+04   -0.82497E-01   -0.82432E-01  2944   0.170E+01 0.245E-02
CGA:   3    -0.118535388277E+04   -0.88564E-01   -0.88485E-01  2944   0.143E+01-0.157E-02
CGA:   4    -0.118541218104E+04   -0.58298E-01   -0.56702E-01  2944   0.149E+00 0.978E-02
CGA:   5    -0.118543448502E+04   -0.22304E-01   -0.22308E-01  2944   0.181E+00-0.532E-04
CGA:   6    -0.118544076820E+04   -0.62832E-02   -0.63149E-02  2944   0.101E+00-0.549E-03
CGA:   7    -0.118544534511E+04   -0.45769E-02   -0.45317E-02  2944   0.347E-01 0.614E-04
CGA:   8    -0.118544836626E+04   -0.30212E-02   -0.30219E-02  2944   0.149E-01-0.368E-04
CGA:   9    -0.118544914170E+04   -0.77545E-03   -0.77493E-03  2944   0.181E-01-0.147E-04
CGA:  10    -0.118544995774E+04   -0.81604E-03   -0.81835E-03  2944   0.509E-02-0.979E-05
CGA:  11    -0.118545049104E+04   -0.53329E-03   -0.53400E-03  2944   0.322E-02-0.157E-04
CGA:  12    -0.118545064861E+04   -0.15757E-03   -0.15768E-03  2944   0.411E-02 0.357E-05
CGA:  13    -0.118545089216E+04   -0.24356E-03   -0.24350E-03  2944   0.131E-02-0.191E-06
CGA:  14    -0.118545101429E+04   -0.12213E-03   -0.12201E-03  2944   0.110E-02 0.485E-05
CGA:  15    -0.118545106310E+04   -0.48808E-04   -0.48787E-04  2944   0.976E-03-0.624E-06
CGA:  16    -0.118545111314E+04   -0.50036E-04   -0.50010E-04  2944   0.448E-03-0.103E-05
CGA:  17    -0.118545115633E+04   -0.43187E-04   -0.43229E-04  2944   0.340E-03-0.145E-05
CGA:  18    -0.118545117381E+04   -0.17485E-04   -0.17469E-04  2944   0.366E-03-0.131E-05
CGA:  19    -0.118545118942E+04   -0.15612E-04   -0.15562E-04  2944   0.930E-04-0.202E-05
CGA:  20    -0.118545119904E+04   -0.96141E-05   -0.96400E-05  2944   0.114E-03-0.715E-06
  26 F= -.11854512E+04 E0= -.11854323E+04  d E =-.149935E-01  mag=   118.0000
       N       E                     dE             d eps       ncg     rms          ort
SDA:   1    -0.118543612183E+04    0.15068E-01    0.00000E+00  2944   0.425E+00 0.000E+00
CGA:   2    -0.118544349633E+04   -0.73745E-02   -0.72310E-02  2944   0.288E-01 0.633E-02
CGA:   3    -0.118544673328E+04   -0.32369E-02   -0.32383E-02  2944   0.418E-01-0.246E-04
CGA:   4    -0.118544985639E+04   -0.31231E-02   -0.31213E-02  2944   0.365E-01 0.154E-03
CGA:   5    -0.118545073708E+04   -0.88068E-03   -0.87312E-03  2944   0.701E-02 0.233E-03
CGA:   6    -0.118545175823E+04   -0.10211E-02   -0.10212E-02  2944   0.505E-02-0.560E-06
CGA:   7    -0.118545199187E+04   -0.23364E-03   -0.23355E-03  2944   0.344E-02-0.409E-05
CGA:   8    -0.118545210893E+04   -0.11706E-03   -0.11701E-03  2944   0.162E-02-0.469E-05
CGA:   9    -0.118545222908E+04   -0.12015E-03   -0.12013E-03  2944   0.489E-03 0.477E-06
CGA:  10    -0.118545228128E+04   -0.52199E-04   -0.52268E-04  2944   0.448E-03-0.174E-05
CGA:  11    -0.118545229389E+04   -0.12614E-04   -0.12588E-04  2944   0.210E-03-0.383E-06
CGA:  12    -0.118545231023E+04   -0.16343E-04   -0.16337E-04  2944   0.907E-04 0.470E-06
CGA:  13    -0.118545232300E+04   -0.12766E-04   -0.12803E-04  2944   0.931E-04-0.489E-06
CGA:  14    -0.118545232637E+04   -0.33734E-05   -0.33690E-05  2944   0.730E-04-0.165E-06
  27 F= -.11854523E+04 E0= -.11854334E+04  d E =-.112734E-02  mag=   118.0000
       N       E                     dE             d eps       ncg     rms          ort
SDA:   1    -0.118487001953E+04    0.58230E+00    0.00000E+00  2944   0.170E+01 0.000E+00
CGA:   2    -0.118518645783E+04   -0.31644E+00   -0.30978E+00  2944   0.291E+01 0.643E-01
CGA:   3    -0.118526920228E+04   -0.82744E-01   -0.80959E-01  2944   0.103E+01 0.301E-01
CGA:   4    -0.118535513362E+04   -0.85931E-01   -0.86349E-01  2944   0.748E+00-0.247E-01
CGA:   5    -0.118541290235E+04   -0.57769E-01   -0.57666E-01  2944   0.355E+00 0.949E-02
CGA:   6    -0.118542335984E+04   -0.10457E-01   -0.10424E-01  2944   0.197E+00 0.457E-03
CGA:   7    -0.118543615958E+04   -0.12800E-01   -0.12811E-01  2944   0.975E-01 0.839E-03
CGA:   8    -0.118544430458E+04   -0.81450E-02   -0.81296E-02  2944   0.460E-01 0.808E-03
CGA:   9    -0.118544556542E+04   -0.12608E-02   -0.12577E-02  2944   0.217E-01 0.758E-04
CGA:  10    -0.118544711358E+04   -0.15482E-02   -0.15482E-02  2944   0.142E-01 0.472E-05
CGA:  11    -0.118544833506E+04   -0.12215E-02   -0.12213E-02  2944   0.727E-02 0.108E-04
CGA:  12    -0.118544866368E+04   -0.32862E-03   -0.32854E-03  2944   0.814E-02 0.176E-06
CGA:  13    -0.118544904493E+04   -0.38125E-03   -0.38221E-03  2944   0.227E-02 0.276E-05
CGA:  14    -0.118544940090E+04   -0.35596E-03   -0.35548E-03  2944   0.246E-02 0.576E-05
CGA:  15    -0.118544951201E+04   -0.11111E-03   -0.11108E-03  2944   0.222E-02-0.198E-05
CGA:  16    -0.118544960010E+04   -0.88092E-04   -0.88136E-04  2944   0.928E-03-0.131E-05
CGA:  17    -0.118544971413E+04   -0.11403E-03   -0.11390E-03  2944   0.948E-03 0.230E-05
CGA:  18    -0.118544979278E+04   -0.78650E-04   -0.78662E-04  2944   0.911E-03-0.814E-06
CGA:  19    -0.118544981704E+04   -0.24263E-04   -0.24312E-04  2944   0.314E-03 0.377E-06
CGA:  20    -0.118544985649E+04   -0.39454E-04   -0.39302E-04  2944   0.358E-03 0.273E-05
CGA:  21    -0.118544988766E+04   -0.31167E-04   -0.31152E-04  2944   0.206E-03 0.124E-05
CGA:  22    -0.118544989552E+04   -0.78629E-05   -0.78824E-05  2944   0.188E-03 0.450E-06
CGA:  23    -0.118544990767E+04   -0.12150E-04   -0.12152E-04  2944   0.990E-04 0.245E-06
CGA:  24    -0.118544992097E+04   -0.13300E-04   -0.13312E-04  2944   0.716E-04-0.172E-06
CGA:  25    -0.118544992576E+04   -0.47854E-05   -0.47859E-05  2944   0.107E-03 0.981E-07
  28 F= -.11854499E+04 E0= -.11854310E+04  d E =0.240061E-02  mag=   118.0000
       N       E                     dE             d eps       ncg     rms          ort
SDA:   1    -0.118540308236E+04    0.46839E-01    0.00000E+00  2944   0.159E+00 0.000E+00
CGA:   2    -0.118542102148E+04   -0.17939E-01   -0.18042E-01  2944   0.375E+00-0.213E-02
CGA:   3    -0.118543514259E+04   -0.14121E-01   -0.14184E-01  2944   0.186E+00-0.876E-03
CGA:   4    -0.118544311715E+04   -0.79746E-02   -0.80099E-02  2944   0.467E-01-0.286E-03
CGA:   5    -0.118545017211E+04   -0.70550E-02   -0.70367E-02  2944   0.163E-01 0.233E-03
CGA:   6    -0.118545180369E+04   -0.16316E-02   -0.16316E-02  2944   0.199E-01 0.259E-05
CGA:   7    -0.118545231964E+04   -0.51595E-03   -0.51725E-03  2944   0.524E-02-0.334E-04
CGA:   8    -0.118545283399E+04   -0.51434E-03   -0.51478E-03  2944   0.263E-02-0.135E-04
CGA:   9    -0.118545300801E+04   -0.17402E-03   -0.17403E-03  2944   0.114E-02-0.364E-06
CGA:  10    -0.118545305713E+04   -0.49126E-04   -0.49067E-04  2944   0.123E-02-0.101E-05
CGA:  11    -0.118545314024E+04   -0.83110E-04   -0.83108E-04  2944   0.564E-03-0.961E-06
CGA:  12    -0.118545318540E+04   -0.45162E-04   -0.45181E-04  2944   0.221E-03-0.200E-05
CGA:  13    -0.118545319890E+04   -0.13491E-04   -0.13499E-04  2944   0.373E-03 0.699E-06
CGA:  14    -0.118545321914E+04   -0.20248E-04   -0.20258E-04  2944   0.165E-03 0.709E-06
CGA:  15    -0.118545323106E+04   -0.11921E-04   -0.11921E-04  2944   0.860E-04 0.205E-06
CGA:  16    -0.118545323784E+04   -0.67739E-05   -0.67707E-05  2944   0.117E-03 0.436E-06
  29 F= -.11854532E+04 E0= -.11854343E+04  d E =-.331208E-02  mag=   118.0000
       N       E                     dE             d eps       ncg     rms          ort
SDA:   1    -0.118413673694E+04    0.13165E+01    0.00000E+00  2944   0.445E+02 0.000E+00
CGA:   2    -0.118537170707E+04   -0.12350E+01   -0.90344E+00  2944   0.117E+01-0.315E+01
CGA:   3    -0.118541357618E+04   -0.41869E-01   -0.44645E-01  2944   0.172E+00-0.158E-01
CGA:   4    -0.118542776327E+04   -0.14187E-01   -0.14289E-01  2944   0.298E+00-0.406E-02
CGA:   5    -0.118543765472E+04   -0.98915E-02   -0.99558E-02  2944   0.870E-01-0.919E-03
CGA:   6    -0.118544638730E+04   -0.87326E-02   -0.87710E-02  2944   0.566E-01-0.932E-03
CGA:   7    -0.118545037530E+04   -0.39880E-02   -0.39875E-02  2944   0.355E-01 0.655E-04
CGA:   8    -0.118545183186E+04   -0.14566E-02   -0.14547E-02  2944   0.299E-01 0.796E-05
CGA:   9    -0.118545334601E+04   -0.15141E-02   -0.15134E-02  2944   0.628E-02-0.487E-05
CGA:  10    -0.118545384698E+04   -0.50097E-03   -0.50127E-03  2944   0.342E-02-0.141E-04
CGA:  11    -0.118545402741E+04   -0.18044E-03   -0.18044E-03  2944   0.433E-02 0.135E-05
CGA:  12    -0.118545422991E+04   -0.20250E-03   -0.20243E-03  2944   0.102E-02-0.860E-06
CGA:  13    -0.118545430946E+04   -0.79549E-04   -0.79561E-04  2944   0.581E-03-0.127E-05
CGA:  14    -0.118545434354E+04   -0.34083E-04   -0.34077E-04  2944   0.815E-03-0.665E-06
CGA:  15    -0.118545438058E+04   -0.37038E-04   -0.37053E-04  2944   0.253E-03 0.562E-06
CGA:  16    -0.118545440742E+04   -0.26842E-04   -0.26849E-04  2944   0.175E-03-0.103E-06
CGA:  17    -0.118545441579E+04   -0.83651E-05   -0.83761E-05  2944   0.195E-03 0.568E-06
CGA:  18    -0.118545442627E+04   -0.10479E-04   -0.10484E-04  2944   0.889E-04 0.452E-06
CGA:  19    -0.118545443594E+04   -0.96724E-05   -0.96634E-05  2944   0.905E-04 0.213E-06
  30 F= -.11854544E+04 E0= -.11854355E+04  d E =-.119810E-02  mag=   118.0000
