 vasp.6.1.2 22Jul20 (build Nov 12 2024 08:16:06) complex                        
  
 POSCAR found type information on POSCAR CaMnP O 
 02/POSCAR found :  4 types and     155 ions
 scaLAPACK will be used
 -----------------------------------------------------------------------------
|                                                                             |
|               ----> ADVICE to this user running VASP <----                  |
|                                                                             |
|     You have a (more or less) 'large supercell' and for larger cells it     |
|     might be more efficient to use real-space projection operators.         |
|     Therefore, try LREAL= Auto in the INCAR file.                           |
|     Mind: For very accurate calculation, you might also keep the            |
|     reciprocal projection scheme (i.e. LREAL=.FALSE.).                      |
|                                                                             |
 -----------------------------------------------------------------------------

 LDA part: xc-table for Pade appr. of Perdew
 POSCAR found type information on POSCAR CaMnP O 
 00/POSCAR found :  4 types and     155 ions
 POSCAR found type information on POSCAR CaMnP O 
 06/POSCAR found :  4 types and     155 ions
 Jacobian:    28.7777120473155     
 POSCAR found type information on POSCAR CaMnP O 
 00/POSCAR found :  4 types and     155 ions
 POSCAR found type information on POSCAR CaMnP O 
 06/POSCAR found :  4 types and     155 ions
 generate k-points for:    2    2    1
 POSCAR, INCAR and KPOINTS ok, starting setup
 FFT: planning ...
 WAVECAR not read
 entering main loop
       N       E                     dE             d eps       ncg     rms          ort
DAV:   1     0.137358480928E+05    0.13736E+05   -0.62391E+05  2944   0.167E+03
DAV:   2     0.509124713698E+03   -0.13227E+05   -0.12228E+05  2944   0.465E+02
DAV:   3    -0.126378176606E+04   -0.17729E+04   -0.17387E+04  2944   0.182E+02
DAV:   4    -0.134433929912E+04   -0.80558E+02   -0.79465E+02  2944   0.386E+01
DAV:   5    -0.134884326260E+04   -0.45040E+01   -0.44817E+01  2944   0.696E+00
 gam= 0.000 g(H,U,f)=  0.169E+04 0.299E+03 0.129E+03 ort(H,U,f) = 0.000E+00 0.000E+00 0.000E+00
SDA:   6    -0.853987612085E+03    0.49486E+03   -0.44817E+01  2944   0.212E+04 0.000E+00
 gam= 0.000 trial= 0.400  step= 0.273 mean= 0.400
 gam= 0.209 g(H,U,f)=  0.187E+03 0.188E+03 0.678E+02 ort(H,U,f) = 0.243E+02 0.509E+02-0.904E+01
CGA:   7    -0.112353696818E+04   -0.26955E+03   -0.28909E+03  2944   0.443E+03 0.662E+02
 gam= 0.209 trial= 0.394  step= 0.208 mean= 0.394
 gam= 0.415 g(H,U,f)=  0.978E+02 0.766E+02 0.924E+01 ort(H,U,f) =-0.216E+01-0.383E+01-0.393E+01
CGA:   8    -0.114379929923E+04   -0.20262E+02   -0.47375E+02  2944   0.184E+03-0.992E+01
 gam= 0.415 trial= 0.384  step= 0.110 mean= 0.384
 gam= 0.883 g(H,U,f)=  0.848E+02 0.622E+02 0.152E+02 ort(H,U,f) = 0.282E+01 0.653E+00-0.473E+01
CGA:   9    -0.114856243353E+04   -0.47631E+01   -0.98996E+01  2944   0.162E+03-0.126E+01
 gam= 0.883 trial= 0.371  step= 0.120 mean= 0.371
 gam= 1.376 g(H,U,f)=  0.406E+02 0.135E+03 0.474E+02 ort(H,U,f) = 0.239E+01 0.896E+01-0.356E+01
CGA:  10    -0.116381696806E+04   -0.15255E+02   -0.96844E+01  2944   0.223E+03 0.779E+01
 gam= 1.376 trial= 0.358  step= 0.126 mean= 0.358
 gam= 0.870 g(H,U,f)=  0.613E+02 0.767E+02 0.563E+02 ort(H,U,f) =-0.756E+02 0.424E+02 0.160E+02
CGA:  11    -0.116545190923E+04   -0.16349E+01   -0.14739E+02  2944   0.194E+03-0.172E+02
 gam= 0.870 trial= 0.346  step= 0.104 mean= 0.346
 gam= 0.808 g(H,U,f)=  0.101E+03 0.514E+02 0.505E+01 ort(H,U,f) =-0.792E+02-0.858E+01-0.394E+01
CGA:  12    -0.115801854109E+04    0.74334E+01   -0.93369E+01  2944   0.157E+03-0.917E+02
 gam= 0.808 trial= 0.334  step= 0.126 mean= 0.334
 gam= 0.932 g(H,U,f)=  0.654E+02 0.360E+02 0.450E+02 ort(H,U,f) =-0.255E+02-0.105E+02-0.219E+02
CGA:  13    -0.116363626978E+04   -0.56177E+01   -0.52040E+01  2944   0.146E+03-0.579E+02
 gam= 0.932 trial= 0.324  step= 0.102 mean= 0.324
 gam= 0.000 g(H,U,f)=  0.385E+02 0.488E+02 0.103E+03 ort(H,U,f) =-0.738E+01-0.265E+02-0.101E+03
CGA:  14    -0.117077258729E+04   -0.71363E+01   -0.47330E+01  2944   0.190E+03-0.135E+03
 gam= 0.000 trial= 0.313  step= 0.144 mean= 0.313
 gam= 1.358 g(H,U,f)=  0.371E+02 0.123E+03 0.980E+02 ort(H,U,f) = 0.792E+01-0.346E+02-0.236E+02
CGA:  15    -0.116998854474E+04    0.78404E+00   -0.13683E+02  2944   0.259E+03-0.502E+02
 gam= 1.358 trial= 0.304  step= 0.142 mean= 0.304
 gam= 0.317 g(H,U,f)=  0.382E+02 0.327E+02 0.110E+02 ort(H,U,f) = 0.175E+01-0.110E+02-0.731E+01
CGA:  16    -0.117010924559E+04   -0.12070E+00   -0.13544E+02  2944   0.820E+02-0.165E+02
 gam= 0.317 trial= 0.296  step= 0.103 mean= 0.296
 gam= 0.000 g(H,U,f)=  0.350E+02 0.544E+02 0.433E+02 ort(H,U,f) =-0.209E+02-0.358E+02-0.109E+02
CGA:  17    -0.117218471992E+04   -0.20755E+01   -0.39342E+01  2944   0.133E+03-0.675E+02
 gam= 0.000 trial= 0.287  step= 0.112 mean= 0.287
 gam= 0.000 g(H,U,f)=  0.322E+02 0.454E+02 0.898E+02 ort(H,U,f) =-0.271E+02-0.325E+02-0.618E+02
CGA:  18    -0.117228830929E+04   -0.10359E+00   -0.74347E+01  2944   0.167E+03-0.121E+03
 gam= 0.000 trial= 0.278  step= 0.113 mean= 0.278
 gam= 0.831 g(H,U,f)=  0.319E+02 0.746E+02 0.326E+02 ort(H,U,f) =-0.242E+02-0.113E+01 0.136E+02
CGA:  19    -0.117359719979E+04   -0.13089E+01   -0.94425E+01  2944   0.139E+03-0.117E+02
 gam= 0.831 trial= 0.270  step= 0.137 mean= 0.270
 gam= 0.522 g(H,U,f)=  0.116E+02 0.142E+02 0.467E+02 ort(H,U,f) =-0.747E+01-0.417E+01 0.555E+02
CGA:  20    -0.117982806603E+04   -0.62309E+01   -0.88368E+01  2944   0.725E+02 0.439E+02
 gam= 0.522 trial= 0.263  step= 0.114 mean= 0.263
 gam= 0.000 g(H,U,f)=  0.162E+02 0.251E+02 0.367E+02 ort(H,U,f) =-0.551E+01-0.195E+02-0.285E+02
CGA:  21    -0.117927355789E+04    0.55451E+00   -0.54546E+01  2944   0.780E+02-0.535E+02
 gam= 0.000 trial= 0.256  step= 0.105 mean= 0.256
 gam= 1.088 g(H,U,f)=  0.688E+01 0.190E+02 0.590E+02 ort(H,U,f) =-0.499E+01 0.231E+01-0.778E+01
CGA:  22    -0.118090374743E+04   -0.16302E+01   -0.40790E+01  2944   0.849E+02-0.105E+02
 gam= 1.088 trial= 0.248  step= 0.065 mean= 0.248
 gam= 0.000 g(H,U,f)=  0.343E+02 0.725E+02 0.294E+03 ort(H,U,f) =-0.167E+02-0.345E+02-0.134E+03
CGA:  23    -0.117320260765E+04    0.77011E+01   -0.23879E+01  2944   0.401E+03-0.185E+03
 gam= 0.000 trial= 0.239  step= 0.113 mean= 0.239
 gam= 0.145 g(H,U,f)=  0.253E+02 0.283E+02 0.454E+01 ort(H,U,f) =-0.246E+02-0.203E+02-0.441E+01
CGA:  24    -0.117428239078E+04   -0.10798E+01   -0.22697E+02  2944   0.582E+02-0.493E+02
 gam= 0.145 trial= 0.233  step= 0.068 mean= 0.233
 gam= 0.000 g(H,U,f)=  0.163E+02 0.350E+02 0.749E+02 ort(H,U,f) =-0.635E+01-0.463E+02-0.122E+03
CGA:  25    -0.117949349088E+04   -0.52111E+01   -0.17227E+01  2944   0.126E+03-0.174E+03
 gam= 0.000 trial= 0.224  step= 0.092 mean= 0.224
 gam= 1.507 g(H,U,f)=  0.157E+02 0.384E+02 0.136E+03 ort(H,U,f) =-0.810E+01-0.115E+02-0.280E+02
CGA:  26    -0.117746852714E+04    0.20250E+01   -0.57999E+01  2944   0.190E+03-0.476E+02
 gam= 1.507 trial= 0.218  step= 0.084 mean= 0.218
 gam= 0.000 g(H,U,f)=  0.281E+02 0.128E+03 0.138E+03 ort(H,U,f) =-0.214E+02-0.773E+02-0.942E+02
CGA:  27    -0.117566994912E+04    0.17986E+01   -0.49834E+01  2944   0.294E+03-0.193E+03
 gam= 0.000 trial= 0.211  step= 0.096 mean= 0.211
 gam= 0.263 g(H,U,f)=  0.270E+02 0.351E+02 0.154E+02 ort(H,U,f) =-0.171E+02-0.183E+02-0.796E+01
CGA:  28    -0.117441102817E+04    0.12589E+01   -0.14192E+02  2944   0.774E+02-0.434E+02
 gam= 0.263 trial= 0.205  step= 0.075 mean= 0.205
 gam= 0.000 g(H,U,f)=  0.151E+02 0.769E+02 0.704E+02 ort(H,U,f) =-0.164E+02-0.102E+03-0.960E+02
CGA:  29    -0.117868259688E+04   -0.42716E+01   -0.24704E+01  2944   0.162E+03-0.214E+03
 gam= 0.000 trial= 0.199  step= 0.080 mean= 0.199
 gam= 0.662 g(H,U,f)=  0.212E+02 0.395E+02 0.468E+02 ort(H,U,f) =-0.154E+02-0.243E+02-0.294E+02
CGA:  30    -0.117634259952E+04    0.23400E+01   -0.65176E+01  2944   0.107E+03-0.691E+02
 gam= 0.662 trial= 0.193  step= 0.074 mean= 0.193
 gam= 0.000 g(H,U,f)=  0.873E+01 0.740E+02 0.145E+03 ort(H,U,f) =-0.744E+01-0.657E+02-0.152E+03
CGA:  31    -0.118103937819E+04   -0.46968E+01   -0.22959E+01  2944   0.228E+03-0.225E+03
 gam= 0.000 trial= 0.187  step= 0.078 mean= 0.187
 gam= 0.568 g(H,U,f)=  0.200E+02 0.431E+02 0.666E+02 ort(H,U,f) =-0.107E+02-0.210E+02-0.338E+02
CGA:  32    -0.117680493978E+04    0.42344E+01   -0.89332E+01  2944   0.130E+03-0.655E+02
 gam= 0.568 trial= 0.181  step= 0.073 mean= 0.181
 gam= 0.000 g(H,U,f)=  0.134E+02 0.744E+02 0.125E+03 ort(H,U,f) =-0.117E+02-0.557E+02-0.111E+03
CGA:  33    -0.117895786202E+04   -0.21529E+01   -0.33721E+01  2944   0.213E+03-0.178E+03
 gam= 0.000 trial= 0.176  step= 0.074 mean= 0.176
 gam= 0.439 g(H,U,f)=  0.201E+02 0.376E+02 0.356E+02 ort(H,U,f) =-0.152E+02-0.263E+02-0.245E+02
CGA:  34    -0.117683192181E+04    0.21259E+01   -0.78603E+01  2944   0.932E+02-0.660E+02
 gam= 0.439 trial= 0.171  step= 0.059 mean= 0.171
 gam= 0.000 g(H,U,f)=  0.307E+01 0.385E+02 0.368E+02 ort(H,U,f) =-0.315E+01-0.591E+02-0.644E+02
CGA:  35    -0.118335583837E+04   -0.65239E+01   -0.18872E+01  2944   0.784E+02-0.127E+03
 gam= 0.000 trial= 0.165  step= 0.058 mean= 0.165
 gam= 0.000 g(H,U,f)=  0.406E+01 0.278E+02 0.792E+02 ort(H,U,f) =-0.236E+01-0.159E+02-0.350E+02
CGA:  36    -0.118288694625E+04    0.46889E+00   -0.22804E+01  2944   0.111E+03-0.532E+02
 gam= 0.000 trial= 0.160  step= 0.054 mean= 0.160
 gam= 0.000 g(H,U,f)=  0.764E+01 0.116E+03 0.119E+03 ort(H,U,f) =-0.512E+01-0.774E+02-0.710E+02
CGA:  37    -0.118108529249E+04    0.18017E+01   -0.29958E+01  2944   0.243E+03-0.154E+03
 gam= 0.000 trial= 0.155  step= 0.065 mean= 0.155
 gam= 0.497 g(H,U,f)=  0.160E+02 0.422E+02 0.623E+02 ort(H,U,f) =-0.108E+02-0.271E+02-0.411E+02
CGA:  38    -0.117809800039E+04    0.29873E+01   -0.78857E+01  2944   0.121E+03-0.791E+02
 gam= 0.497 trial= 0.150  step= 0.055 mean= 0.150
 gam= 0.000 g(H,U,f)=  0.114E+01 0.228E+02 0.140E+02 ort(H,U,f) =-0.225E+01-0.591E+02-0.398E+02
CGA:  39    -0.118400892654E+04   -0.59109E+01   -0.22543E+01  2944   0.379E+02-0.101E+03
 gam= 0.000 trial= 0.145  step= 0.035 mean= 0.145
 gam= 0.000 g(H,U,f)=  0.840E+00 0.989E+01 0.133E+02 ort(H,U,f) =-0.421E+00-0.114E+02-0.157E+02
CGA:  40    -0.118419684686E+04   -0.18792E+00   -0.66703E+00  2944   0.240E+02-0.275E+02
 gam= 0.000 trial= 0.140  step= 0.027 mean= 0.140
 gam= 0.167 g(H,U,f)=  0.176E+00 0.211E+01 0.174E+01 ort(H,U,f) =-0.309E-01-0.469E+01-0.439E+01
CGA:  41    -0.118441015616E+04   -0.21331E+00   -0.31855E+00  2944   0.403E+01-0.911E+01
 gam= 0.167 trial= 0.134  step= 0.040 mean= 0.134
 gam= 0.105 g(H,U,f)=  0.121E+00 0.212E+00 0.891E-01 ort(H,U,f) = 0.122E+00-0.587E-01-0.176E+00
CGA:  42    -0.118445790669E+04   -0.47751E-01   -0.50405E-01  2944   0.422E+00-0.113E+00
 gam= 0.105 trial= 0.130  step= 0.090 mean= 0.130
 gam= 2.527 g(H,U,f)=  0.775E-01 0.567E+00 0.422E+00 ort(H,U,f) = 0.825E-01 0.184E-01-0.101E+00
CGA:  43    -0.118447623812E+04   -0.18331E-01   -0.18479E-01  2944   0.107E+01 0.326E-03
 gam= 2.527 trial= 0.128  step= 0.179 mean= 0.128
 gam= 0.627 g(H,U,f)=  0.129E+00 0.481E+00 0.583E-01 ort(H,U,f) =-0.595E-01 0.161E+00 0.112E-01
CGA:  44    -0.118457706784E+04   -0.10083E+00   -0.95595E-01  2944   0.668E+00 0.113E+00
 gam= 0.627 trial= 0.130  step= 0.093 mean= 0.130
 gam= 1.233 g(H,U,f)=  0.896E-01 0.558E+00 0.176E+00 ort(H,U,f) = 0.683E-01 0.269E-03-0.697E-01
CGA:  45    -0.118461191219E+04   -0.34844E-01   -0.34246E-01  2944   0.824E+00-0.111E-02
 gam= 1.233 trial= 0.128  step= 0.058 mean= 0.128
 gam= 0.563 g(H,U,f)=  0.519E-01 0.308E+00 0.104E+00 ort(H,U,f) = 0.105E+00 0.893E-02-0.444E-01
CGA:  46    -0.118463852135E+04   -0.26609E-01   -0.23923E-01  2944   0.464E+00 0.695E-01
 gam= 0.563 trial= 0.125  step= 0.083 mean= 0.125
 gam= 0.829 g(H,U,f)=  0.640E-01 0.276E+00 0.453E-01 ort(H,U,f) = 0.891E-02-0.194E-01 0.135E-01
CGA:  47    -0.118465791609E+04   -0.19395E-01   -0.20837E-01  2944   0.385E+00 0.299E-02
 gam= 0.829 trial= 0.123  step= 0.073 mean= 0.123
 gam= 0.805 g(H,U,f)=  0.886E-01 0.190E+00 0.307E-01 ort(H,U,f) = 0.616E-02 0.116E-02-0.125E-01
CGA:  48    -0.118467124287E+04   -0.13327E-01   -0.14102E-01  2944   0.310E+00-0.516E-02
 gam= 0.805 trial= 0.120  step= 0.127 mean= 0.120
 gam= 0.565 g(H,U,f)=  0.753E-01 0.897E-01 0.995E-02 ort(H,U,f) = 0.146E-01 0.134E-01-0.741E-02
CGA:  49    -0.118469070963E+04   -0.19467E-01   -0.19346E-01  2944   0.175E+00 0.206E-01
 gam= 0.565 trial= 0.121  step= 0.152 mean= 0.121
 gam= 0.663 g(H,U,f)=  0.288E-01 0.733E-01 0.139E-01 ort(H,U,f) = 0.111E-01-0.397E-02-0.107E-01
CGA:  50    -0.118470482039E+04   -0.14111E-01   -0.14185E-01  2944   0.116E+00-0.356E-02
 gam= 0.663 trial= 0.122  step= 0.126 mean= 0.122
 gam= 0.642 g(H,U,f)=  0.186E-01 0.454E-01 0.105E-01 ort(H,U,f) = 0.572E-02-0.234E-02-0.173E-02
CGA:  51    -0.118471196438E+04   -0.71440E-02   -0.71383E-02  2944   0.744E-01 0.164E-02
 gam= 0.642 trial= 0.122  step= 0.101 mean= 0.122
 gam= 0.856 g(H,U,f)=  0.155E-01 0.402E-01 0.802E-02 ort(H,U,f) = 0.119E-01-0.714E-02-0.362E-02
CGA:  52    -0.118471574919E+04   -0.37848E-02   -0.38274E-02  2944   0.637E-01 0.115E-02
 gam= 0.856 trial= 0.121  step= 0.110 mean= 0.121
 gam= 0.597 g(H,U,f)=  0.106E-01 0.251E-01 0.236E-02 ort(H,U,f) = 0.131E-01-0.107E-01-0.180E-02
CGA:  53    -0.118471928111E+04   -0.35319E-02   -0.35420E-02  2944   0.381E-01 0.588E-03
 gam= 0.597 trial= 0.121  step= 0.138 mean= 0.121
 gam= 0.548 g(H,U,f)=  0.685E-02 0.125E-01 0.151E-02 ort(H,U,f) = 0.547E-02-0.415E-02-0.821E-03
CGA:  54    -0.118472194765E+04   -0.26665E-02   -0.26583E-02  2944   0.209E-01 0.501E-03
 gam= 0.548 trial= 0.122  step= 0.131 mean= 0.122
 gam= 0.897 g(H,U,f)=  0.477E-02 0.121E-01 0.182E-02 ort(H,U,f) = 0.444E-02-0.392E-02-0.552E-03
CGA:  55    -0.118472332868E+04   -0.13810E-02   -0.13808E-02  2944   0.187E-01-0.308E-04
 gam= 0.897 trial= 0.122  step= 0.118 mean= 0.122
 gam= 0.796 g(H,U,f)=  0.374E-02 0.927E-02 0.188E-02 ort(H,U,f) = 0.353E-02-0.278E-02-0.857E-03
CGA:  56    -0.118472442743E+04   -0.10987E-02   -0.10986E-02  2944   0.149E-01-0.115E-03
 gam= 0.796 trial= 0.122  step= 0.109 mean= 0.122
 gam= 0.570 g(H,U,f)=  0.310E-02 0.433E-02 0.106E-02 ort(H,U,f) = 0.265E-02-0.235E-02-0.433E-03
CGA:  57    -0.118472523207E+04   -0.80465E-03   -0.80397E-03  2944   0.849E-02-0.125E-03
 gam= 0.570 trial= 0.121  step= 0.195 mean= 0.121
 gam= 0.968 g(H,U,f)=  0.202E-02 0.541E-02 0.784E-03 ort(H,U,f) = 0.152E-02-0.128E-02-0.150E-03
CGA:  58    -0.118472605662E+04   -0.82454E-03   -0.81973E-03  2944   0.822E-02 0.908E-04
 gam= 0.968 trial= 0.125  step= 0.110 mean= 0.125
 gam= 0.780 g(H,U,f)=  0.159E-02 0.403E-02 0.785E-03 ort(H,U,f) = 0.130E-02-0.106E-02-0.317E-03
CGA:  59    -0.118472651304E+04   -0.45642E-03   -0.45600E-03  2944   0.641E-02-0.795E-04
 gam= 0.780 trial= 0.124  step= 0.111 mean= 0.124
 gam= 0.637 g(H,U,f)=  0.129E-02 0.228E-02 0.517E-03 ort(H,U,f) = 0.107E-02-0.927E-03-0.202E-03
CGA:  60    -0.118472686714E+04   -0.35410E-03   -0.35377E-03  2944   0.409E-02-0.589E-04
 gam= 0.637 trial= 0.123  step= 0.141 mean= 0.123
 gam= 0.738 g(H,U,f)=  0.954E-03 0.164E-02 0.416E-03 ort(H,U,f) = 0.908E-03-0.650E-03-0.357E-03
CGA:  61    -0.118472715090E+04   -0.28377E-03   -0.28491E-03  2944   0.302E-02-0.100E-03
 gam= 0.738 trial= 0.124  step= 0.160 mean= 0.124
 gam= 0.961 g(H,U,f)=  0.615E-03 0.187E-02 0.410E-03 ort(H,U,f) = 0.533E-03-0.449E-03-0.796E-04
CGA:  62    -0.118472738645E+04   -0.23554E-03   -0.23527E-03  2944   0.290E-02 0.409E-05
 gam= 0.961 trial= 0.126  step= 0.086 mean= 0.126
 gam= 0.502 g(H,U,f)=  0.471E-03 0.819E-03 0.163E-03 ort(H,U,f) = 0.460E-03-0.382E-03-0.901E-04
CGA:  63    -0.118472751128E+04   -0.12484E-03   -0.12472E-03  2944   0.145E-02-0.117E-04
 gam= 0.502 trial= 0.124  step= 0.170 mean= 0.124
 gam= 0.892 g(H,U,f)=  0.318E-03 0.797E-03 0.182E-03 ort(H,U,f) = 0.241E-03-0.132E-03-0.114E-03
CGA:  64    -0.118472763420E+04   -0.12292E-03   -0.12302E-03  2944   0.130E-02-0.509E-05
 gam= 0.892 trial= 0.126  step= 0.126 mean= 0.126
 gam= 0.875 g(H,U,f)=  0.248E-03 0.739E-03 0.148E-03 ort(H,U,f) = 0.217E-03-0.138E-03-0.847E-04
CGA:  65    -0.118472771531E+04   -0.81111E-04   -0.81109E-04  2944   0.114E-02-0.563E-05
 gam= 0.875 trial= 0.126  step= 0.113 mean= 0.126
 gam= 0.680 g(H,U,f)=  0.209E-03 0.484E-03 0.792E-04 ort(H,U,f) = 0.175E-03-0.121E-03-0.579E-04
CGA:  66    -0.118472777897E+04   -0.63661E-04   -0.63636E-04  2944   0.772E-03-0.341E-05
 gam= 0.680 trial= 0.126  step= 0.139 mean= 0.126
 gam= 0.742 g(H,U,f)=  0.176E-03 0.346E-03 0.508E-04 ort(H,U,f) = 0.132E-03-0.103E-03-0.288E-04
CGA:  67    -0.118472783231E+04   -0.53336E-04   -0.53339E-04  2944   0.573E-03 0.436E-06
 gam= 0.742 trial= 0.126  step= 0.144 mean= 0.126
 gam= 0.953 g(H,U,f)=  0.137E-03 0.339E-03 0.699E-04 ort(H,U,f) = 0.109E-03-0.799E-04-0.245E-04
CGA:  68    -0.118472787358E+04   -0.41273E-04   -0.41230E-04  2944   0.546E-03 0.420E-05
 gam= 0.953 trial= 0.127  step= 0.092 mean= 0.127
 gam= 0.534 g(H,U,f)=  0.112E-03 0.148E-03 0.321E-04 ort(H,U,f) = 0.106E-03-0.723E-04-0.319E-04
CGA:  69    -0.118472789894E+04   -0.25355E-04   -0.25387E-04  2944   0.292E-03 0.173E-05
 gam= 0.534 trial= 0.125  step= 0.184 mean= 0.125
 gam= 0.977 g(H,U,f)=  0.748E-04 0.182E-03 0.285E-04 ort(H,U,f) = 0.559E-04-0.399E-04-0.974E-05
CGA:  70    -0.118472792599E+04   -0.27055E-04   -0.26867E-04  2944   0.285E-03 0.621E-05
 gam= 0.977 trial= 0.128  step= 0.103 mean= 0.128
 gam= 0.000 g(H,U,f)=  0.548E-04 0.955E-04 0.165E-04 ort(H,U,f) = 0.515E-04-0.401E-04-0.820E-05
SDA:  71    -0.118472794088E+04   -0.14881E-04   -0.14922E-04  2944   0.167E-03 0.323E-05
 gam= 0.000 trial= 0.127  step= 0.064 mean= 0.127
 gam= 0.569 g(H,U,f)=  0.356E-04 0.459E-04 0.134E-04 ort(H,U,f) = 0.378E-04-0.249E-04-0.125E-04
CGA:  72    -0.118472794616E+04   -0.52814E-05   -0.53012E-05  2944   0.949E-04 0.407E-06
 gam= 0.569 trial= 0.124  step= 0.165 mean= 0.124
 final diagonalization
   1 F= -.11847279E+04 E0= -.11847088E+04  d E =-.118473E+04  mag=   118.0000
quench:  g(F)=  0.000E+00 g(S)=  0.000E+00 dE (1.order)= 0.000E+00
 bond charge predicted
 wavefunctions rotated
       N       E                     dE             d eps       ncg     rms          ort
 gam= 0.000 g(H,U,f)=  0.107E-01 0.258E-01 0.853E-02 ort(H,U,f) = 0.000E+00 0.000E+00 0.000E+00
SDA:   1    -0.118473288155E+04   -0.49407E-02    0.00000E+00  2944   0.450E-01 0.000E+00
 gam= 0.000 trial= 0.126  step= 0.056 mean= 0.126
 gam= 0.344 g(H,U,f)=  0.677E-02 0.732E-02 0.141E-02 ort(H,U,f) = 0.654E-02-0.407E-02-0.256E-02
CGA:   2    -0.118473412699E+04   -0.12454E-02   -0.12495E-02  2944   0.155E-01-0.842E-04
 gam= 0.344 trial= 0.122  step= 0.117 mean= 0.122
 gam= 0.570 g(H,U,f)=  0.477E-02 0.367E-02 0.392E-03 ort(H,U,f) = 0.525E-02-0.474E-02-0.462E-03
CGA:   3    -0.118473503483E+04   -0.90784E-03   -0.90802E-03  2944   0.884E-02 0.504E-04
 gam= 0.570 trial= 0.122  step= 0.284 mean= 0.122
 gam= 0.461 g(H,U,f)=  0.195E-02 0.202E-02 0.102E-03 ort(H,U,f) = 0.103E-02-0.934E-03-0.546E-04
CGA:   4    -0.118473629612E+04   -0.12613E-02   -0.12579E-02  2944   0.408E-02 0.451E-04
 gam= 0.461 trial= 0.130  step= 0.147 mean= 0.130
 gam= 0.472 g(H,U,f)=  0.949E-03 0.834E-03 0.140E-03 ort(H,U,f) = 0.834E-03-0.771E-03-0.677E-04
CGA:   5    -0.118473659799E+04   -0.30187E-03   -0.30193E-03  2944   0.192E-02-0.478E-05
 gam= 0.472 trial= 0.131  step= 0.186 mean= 0.131
 gam= 0.633 g(H,U,f)=  0.449E-03 0.567E-03 0.202E-03 ort(H,U,f) = 0.363E-03-0.254E-03-0.109E-03
CGA:   6    -0.118473677668E+04   -0.17869E-03   -0.17863E-03  2944   0.122E-02-0.274E-06
 gam= 0.633 trial= 0.134  step= 0.086 mean= 0.134
 gam= 0.845 g(H,U,f)=  0.285E-03 0.612E-03 0.132E-03 ort(H,U,f) = 0.371E-03-0.284E-03-0.913E-04
CGA:   7    -0.118473682901E+04   -0.52330E-04   -0.52197E-04  2944   0.103E-02-0.454E-05
 gam= 0.845 trial= 0.131  step= 0.129 mean= 0.131
 gam= 0.167 g(H,U,f)=  0.107E-03 0.584E-04 0.679E-05 ort(H,U,f) = 0.695E-04-0.609E-04-0.166E-04
CGA:   8    -0.118473689520E+04   -0.66185E-04   -0.66175E-04  2944   0.172E-03-0.798E-05
 gam= 0.167 trial= 0.131  step= 0.260 mean= 0.131
 gam= 0.757 g(H,U,f)=  0.519E-04 0.708E-04 0.729E-05 ort(H,U,f) = 0.312E-04-0.277E-04-0.301E-05
CGA:   9    -0.118473691739E+04   -0.22193E-04   -0.22162E-04  2944   0.130E-03 0.506E-06
 gam= 0.757 trial= 0.138  step= 0.144 mean= 0.138
 gam= 1.145 g(H,U,f)=  0.350E-04 0.873E-04 0.264E-04 ort(H,U,f) = 0.316E-04-0.219E-04-0.836E-05
CGA:  10    -0.118473692680E+04   -0.94083E-05   -0.94042E-05  2944   0.149E-03 0.140E-05
 gam= 1.145 trial= 0.138  step= 0.081 mean= 0.138
 final diagonalization
   2 F= -.11847369E+04 E0= -.11847178E+04  d E =-.898064E-02  mag=   118.0000
quench:  g(F)=  0.000E+00 g(S)=  0.000E+00 dE (1.order)= 0.000E+00
 bond charge predicted
 wavefunctions rotated
       N       E                     dE             d eps       ncg     rms          ort
 gam= 0.000 g(H,U,f)=  0.405E+01 0.138E+01 0.714E+00 ort(H,U,f) = 0.000E+00 0.000E+00 0.000E+00
SDA:   1    -0.118333909909E+04    0.13978E+01    0.00000E+00  2944   0.614E+01 0.000E+00
 gam= 0.000 trial= 0.135  step= 0.102 mean= 0.135
 gam= 1.364 g(H,U,f)=  0.302E+01 0.475E+01 0.604E+00 ort(H,U,f) = 0.297E+01-0.257E+01-0.364E+00
CGA:   2    -0.118364363031E+04   -0.30453E+00   -0.31236E+00  2944   0.838E+01 0.412E-01
 gam= 1.364 trial= 0.134  step= 0.173 mean= 0.134
 gam= 0.559 g(H,U,f)=  0.147E+01 0.269E+01 0.523E+00 ort(H,U,f) = 0.141E+01-0.113E+01-0.260E+00
CGA:   3    -0.118437485628E+04   -0.73123E+00   -0.73081E+00  2944   0.468E+01 0.149E-01
 gam= 0.559 trial= 0.136  step= 0.109 mean= 0.136
 gam= 0.233 g(H,U,f)=  0.838E+00 0.227E+00 0.273E-01 ort(H,U,f) = 0.625E+00-0.513E+00-0.722E-01
CGA:   4    -0.118462743270E+04   -0.25258E+00   -0.25479E+00  2944   0.109E+01 0.390E-01
 gam= 0.233 trial= 0.134  step= 0.307 mean= 0.134
 gam= 0.753 g(H,U,f)=  0.266E+00 0.497E+00 0.593E-01 ort(H,U,f) = 0.130E+00-0.121E+00-0.970E-02
CGA:   5    -0.118479627008E+04   -0.16884E+00   -0.16898E+00  2944   0.823E+00-0.155E-02
 gam= 0.753 trial= 0.143  step= 0.071 mean= 0.143
 gam= 0.588 g(H,U,f)=  0.178E+00 0.236E+00 0.704E-01 ort(H,U,f) = 0.191E+00-0.119E+00-0.734E-01
CGA:   6    -0.118482558121E+04   -0.29311E-01   -0.29273E-01  2944   0.484E+00-0.473E-03
 gam= 0.588 trial= 0.139  step= 0.121 mean= 0.139
 gam= 0.360 g(H,U,f)=  0.814E-01 0.833E-01 0.925E-02 ort(H,U,f) = 0.929E-01-0.854E-01-0.127E-01
CGA:   7    -0.118485499282E+04   -0.29412E-01   -0.29275E-01  2944   0.174E+00-0.524E-02
 gam= 0.360 trial= 0.138  step= 0.194 mean= 0.138
 gam= 0.403 g(H,U,f)=  0.290E-01 0.365E-01 0.452E-02 ort(H,U,f) = 0.190E-01-0.155E-01-0.234E-02
CGA:   8    -0.118487171034E+04   -0.16718E-01   -0.16677E-01  2944   0.700E-01 0.114E-02
 gam= 0.403 trial= 0.141  step= 0.144 mean= 0.141
 gam= 0.780 g(H,U,f)=  0.149E-01 0.326E-01 0.714E-02 ort(H,U,f) = 0.121E-01-0.945E-02-0.233E-02
CGA:   9    -0.118487679996E+04   -0.50896E-02   -0.50887E-02  2944   0.547E-01 0.296E-03
 gam= 0.780 trial= 0.141  step= 0.076 mean= 0.141
 gam= 0.554 g(H,U,f)=  0.109E-01 0.153E-01 0.411E-02 ort(H,U,f) = 0.125E-01-0.810E-02-0.439E-02
CGA:  10    -0.118487887974E+04   -0.20798E-02   -0.20829E-02  2944   0.303E-01-0.198E-04
 gam= 0.554 trial= 0.138  step= 0.171 mean= 0.138
 gam= 0.592 g(H,U,f)=  0.657E-02 0.101E-01 0.127E-02 ort(H,U,f) = 0.434E-02-0.323E-02-0.910E-03
CGA:  11    -0.118488147346E+04   -0.25937E-02   -0.25889E-02  2944   0.179E-01 0.208E-03
 gam= 0.592 trial= 0.140  step= 0.186 mean= 0.140
 gam= 0.461 g(H,U,f)=  0.340E-02 0.368E-02 0.119E-02 ort(H,U,f) = 0.105E-02-0.339E-03-0.663E-03
CGA:  12    -0.118488315552E+04   -0.16821E-02   -0.16807E-02  2944   0.827E-02 0.499E-04
 gam= 0.461 trial= 0.142  step= 0.113 mean= 0.142
 gam= 1.285 g(H,U,f)=  0.262E-02 0.646E-02 0.154E-02 ort(H,U,f) = 0.221E-02-0.132E-02-0.889E-03
CGA:  13    -0.118488362324E+04   -0.46772E-03   -0.46767E-03  2944   0.106E-01 0.194E-05
 gam= 1.285 trial= 0.141  step= 0.123 mean= 0.141
 gam= 0.432 g(H,U,f)=  0.184E-02 0.243E-02 0.321E-03 ort(H,U,f) = 0.135E-02-0.104E-02-0.308E-03
CGA:  14    -0.118488427737E+04   -0.65413E-03   -0.65418E-03  2944   0.459E-02 0.519E-05
 gam= 0.432 trial= 0.140  step= 0.204 mean= 0.140
 gam= 0.564 g(H,U,f)=  0.114E-02 0.122E-02 0.227E-03 ort(H,U,f) = 0.480E-03-0.360E-03-0.138E-03
CGA:  15    -0.118488474400E+04   -0.46663E-03   -0.46732E-03  2944   0.259E-02-0.178E-04
 gam= 0.564 trial= 0.143  step= 0.158 mean= 0.143
 gam= 1.284 g(H,U,f)=  0.807E-03 0.191E-02 0.606E-03 ort(H,U,f) = 0.649E-03-0.441E-03-0.213E-03
CGA:  16    -0.118488494748E+04   -0.20348E-03   -0.20352E-03  2944   0.333E-02-0.474E-05
 gam= 1.284 trial= 0.144  step= 0.081 mean= 0.144
 gam= 0.454 g(H,U,f)=  0.623E-03 0.761E-03 0.124E-03 ort(H,U,f) = 0.811E-03-0.652E-03-0.166E-03
CGA:  17    -0.118488508281E+04   -0.13533E-03   -0.13515E-03  2944   0.151E-02-0.620E-05
 gam= 0.454 trial= 0.141  step= 0.209 mean= 0.141
 gam= 0.667 g(H,U,f)=  0.373E-03 0.539E-03 0.934E-04 ort(H,U,f) = 0.317E-03-0.278E-03-0.413E-04
CGA:  18    -0.118488524002E+04   -0.15722E-03   -0.15728E-03  2944   0.101E-02-0.214E-05
 gam= 0.667 trial= 0.144  step= 0.152 mean= 0.144
 gam= 0.570 g(H,U,f)=  0.233E-03 0.254E-03 0.859E-04 ort(H,U,f) = 0.213E-03-0.159E-03-0.536E-04
CGA:  19    -0.118488531619E+04   -0.76167E-04   -0.76162E-04  2944   0.573E-03 0.675E-06
 gam= 0.570 trial= 0.144  step= 0.091 mean= 0.144
 gam= 1.023 g(H,U,f)=  0.192E-03 0.331E-03 0.629E-04 ort(H,U,f) = 0.250E-03-0.198E-03-0.497E-04
CGA:  20    -0.118488534233E+04   -0.26137E-04   -0.26210E-04  2944   0.586E-03 0.269E-05
 gam= 1.023 trial= 0.142  step= 0.206 mean= 0.142
 gam= 0.431 g(H,U,f)=  0.119E-03 0.125E-03 0.806E-05 ort(H,U,f) = 0.116E-03-0.101E-03-0.500E-05
CGA:  21    -0.118488540325E+04   -0.60921E-04   -0.60624E-04  2944   0.253E-03 0.948E-05
 gam= 0.431 trial= 0.145  step= 0.196 mean= 0.145
 gam= 0.964 g(H,U,f)=  0.887E-04 0.130E-03 0.253E-04 ort(H,U,f) = 0.756E-04-0.629E-04-0.822E-05
CGA:  22    -0.118488542854E+04   -0.25294E-04   -0.25188E-04  2944   0.244E-03 0.451E-05
 gam= 0.964 trial= 0.147  step= 0.113 mean= 0.147
 gam= 1.223 g(H,U,f)=  0.776E-04 0.169E-03 0.514E-04 ort(H,U,f) = 0.991E-04-0.734E-04-0.234E-04
CGA:  23    -0.118488544256E+04   -0.14017E-04   -0.14054E-04  2944   0.298E-03 0.226E-05
 gam= 1.223 trial= 0.146  step= 0.131 mean= 0.146
 gam= 0.456 g(H,U,f)=  0.638E-04 0.607E-04 0.114E-04 ort(H,U,f) = 0.681E-04-0.525E-04-0.120E-04
CGA:  24    -0.118488546223E+04   -0.19668E-04   -0.19694E-04  2944   0.136E-03 0.357E-05
 gam= 0.456 trial= 0.145  step= 0.241 mean= 0.145
 gam= 0.796 g(H,U,f)=  0.425E-04 0.533E-04 0.124E-04 ort(H,U,f) = 0.286E-04-0.214E-04-0.577E-05
CGA:  25    -0.118488547884E+04   -0.16611E-04   -0.16544E-04  2944   0.108E-03 0.139E-05
 gam= 0.796 trial= 0.150  step= 0.137 mean= 0.150
 gam= 1.028 g(H,U,f)=  0.326E-04 0.606E-04 0.180E-04 ort(H,U,f) = 0.317E-04-0.224E-04-0.788E-05
CGA:  26    -0.118488548630E+04   -0.74596E-05   -0.74696E-05  2944   0.111E-03 0.143E-05
 gam= 1.028 trial= 0.149  step= 0.089 mean= 0.149
 final diagonalization
   3 F= -.11848855E+04 E0= -.11848664E+04  d E =-.148559E+00  mag=   118.0000
quench:  g(F)=  0.000E+00 g(S)=  0.000E+00 dE (1.order)= 0.000E+00
 bond charge predicted
 wavefunctions rotated
       N       E                     dE             d eps       ncg     rms          ort
 gam= 0.000 g(H,U,f)=  0.141E+02 0.255E+01 0.153E+01 ort(H,U,f) = 0.000E+00 0.000E+00 0.000E+00
SDA:   1    -0.117974312325E+04    0.51424E+01    0.00000E+00  2944   0.182E+02 0.000E+00
 gam= 0.000 trial= 0.146  step= 0.132 mean= 0.146
 gam= 1.903 g(H,U,f)=  0.982E+01 0.185E+02 0.642E+01 ort(H,U,f) = 0.976E+01-0.687E+01-0.236E+01
CGA:   2    -0.118093587579E+04   -0.11928E+01   -0.12035E+01  2944   0.347E+02 0.533E+00
 gam= 1.903 trial= 0.145  step= 0.150 mean= 0.145
 gam= 0.208 g(H,U,f)=  0.487E+01 0.188E+01 0.476E+00 ort(H,U,f) = 0.183E+01-0.153E+01-0.481E+00
CGA:   3    -0.118362009665E+04   -0.26842E+01   -0.26850E+01  2944   0.723E+01-0.176E+00
 gam= 0.208 trial= 0.146  step= 0.164 mean= 0.146
 gam= 0.902 g(H,U,f)=  0.245E+01 0.318E+01 0.885E+00 ort(H,U,f) = 0.249E+01-0.156E+01-0.510E+00
CGA:   4    -0.118421805564E+04   -0.59796E+00   -0.59145E+00  2944   0.652E+01 0.426E+00
 gam= 0.902 trial= 0.147  step= 0.116 mean= 0.147
 gam= 0.875 g(H,U,f)=  0.113E+01 0.295E+01 0.162E+01 ort(H,U,f) = 0.167E+01-0.966E+00-0.680E+00
CGA:   5    -0.118461702127E+04   -0.39897E+00   -0.40076E+00  2944   0.570E+01 0.208E-01
 gam= 0.875 trial= 0.145  step= 0.076 mean= 0.145
 gam= 0.202 g(H,U,f)=  0.690E+00 0.410E+00 0.528E-01 ort(H,U,f) = 0.568E+00-0.697E+00-0.129E+00
CGA:   6    -0.118481789704E+04   -0.20088E+00   -0.21603E+00  2944   0.115E+01-0.257E+00
 gam= 0.202 trial= 0.142  step= 0.223 mean= 0.142
 gam= 0.674 g(H,U,f)=  0.255E+00 0.386E+00 0.136E+00 ort(H,U,f) = 0.200E+00-0.154E+00-0.568E-01
CGA:   7    -0.118494034846E+04   -0.12245E+00   -0.12301E+00  2944   0.777E+00-0.108E-01
 gam= 0.674 trial= 0.146  step= 0.096 mean= 0.146
 gam= 0.670 g(H,U,f)=  0.126E+00 0.320E+00 0.750E-01 ort(H,U,f) = 0.157E+00-0.107E+00-0.517E-01
CGA:   8    -0.118497682237E+04   -0.36474E-01   -0.37005E-01  2944   0.521E+00-0.117E-02
 gam= 0.670 trial= 0.143  step= 0.079 mean= 0.143
 gam= 0.322 g(H,U,f)=  0.720E-01 0.822E-01 0.136E-01 ort(H,U,f) = 0.901E-01-0.711E-01-0.198E-01
CGA:   9    -0.118499721834E+04   -0.20396E-01   -0.20468E-01  2944   0.168E+00-0.799E-03
 gam= 0.322 trial= 0.140  step= 0.190 mean= 0.140
 gam= 0.622 g(H,U,f)=  0.372E-01 0.559E-01 0.114E-01 ort(H,U,f) = 0.265E-01-0.183E-01-0.626E-02
CGA:  10    -0.118501316225E+04   -0.15944E-01   -0.15882E-01  2944   0.104E+00 0.189E-02
 gam= 0.622 trial= 0.142  step= 0.120 mean= 0.142
 gam= 1.153 g(H,U,f)=  0.243E-01 0.700E-01 0.261E-01 ort(H,U,f) = 0.245E-01-0.135E-01-0.110E-01
CGA:  11    -0.118501949752E+04   -0.63353E-02   -0.63394E-02  2944   0.120E+00 0.134E-03
 gam= 1.153 trial= 0.141  step= 0.097 mean= 0.141
 gam= 0.314 g(H,U,f)=  0.153E-01 0.195E-01 0.309E-02 ort(H,U,f) = 0.103E-01-0.549E-02-0.476E-02
CGA:  12    -0.118502531999E+04   -0.58225E-02   -0.58367E-02  2944   0.378E-01 0.631E-04
 gam= 0.314 trial= 0.139  step= 0.176 mean= 0.139
 gam= 0.767 g(H,U,f)=  0.987E-02 0.154E-01 0.378E-02 ort(H,U,f) = 0.564E-02-0.375E-02-0.186E-02
CGA:  13    -0.118502865700E+04   -0.33370E-02   -0.33366E-02  2944   0.290E-01 0.268E-04
 gam= 0.767 trial= 0.141  step= 0.141 mean= 0.141
 gam= 1.339 g(H,U,f)=  0.694E-02 0.247E-01 0.723E-02 ort(H,U,f) = 0.586E-02-0.279E-02-0.295E-02
CGA:  14    -0.118503070230E+04   -0.20453E-02   -0.20453E-02  2944   0.388E-01 0.110E-03
 gam= 1.339 trial= 0.141  step= 0.088 mean= 0.141
 gam= 0.253 g(H,U,f)=  0.499E-02 0.431E-02 0.518E-03 ort(H,U,f) = 0.297E-02-0.208E-02-0.884E-03
CGA:  15    -0.118503242171E+04   -0.17194E-02   -0.17217E-02  2944   0.982E-02 0.995E-05
 gam= 0.253 trial= 0.138  step= 0.234 mean= 0.138
 gam= 1.291 g(H,U,f)=  0.360E-02 0.747E-02 0.161E-02 ort(H,U,f) = 0.225E-02-0.175E-02-0.459E-03
CGA:  16    -0.118503357464E+04   -0.11529E-02   -0.11511E-02  2944   0.127E-01 0.461E-04
 gam= 1.291 trial= 0.143  step= 0.105 mean= 0.143
 gam= 0.864 g(H,U,f)=  0.278E-02 0.582E-02 0.235E-02 ort(H,U,f) = 0.315E-02-0.195E-02-0.118E-02
CGA:  17    -0.118503424254E+04   -0.66790E-03   -0.66838E-03  2944   0.110E-01 0.965E-05
 gam= 0.864 trial= 0.141  step= 0.103 mean= 0.141
 gam= 0.354 g(H,U,f)=  0.189E-02 0.163E-02 0.365E-03 ort(H,U,f) = 0.220E-02-0.165E-02-0.550E-03
CGA:  18    -0.118503480633E+04   -0.56379E-03   -0.56507E-03  2944   0.388E-02 0.280E-05
 gam= 0.354 trial= 0.139  step= 0.224 mean= 0.139
 gam= 1.010 g(H,U,f)=  0.119E-02 0.202E-02 0.707E-03 ort(H,U,f) = 0.102E-02-0.812E-03-0.205E-03
CGA:  19    -0.118503524042E+04   -0.43409E-03   -0.43375E-03  2944   0.392E-02 0.773E-05
 gam= 1.010 trial= 0.144  step= 0.085 mean= 0.144
 gam= 0.719 g(H,U,f)=  0.925E-03 0.150E-02 0.389E-03 ort(H,U,f) = 0.136E-02-0.100E-02-0.358E-03
CGA:  20    -0.118503540634E+04   -0.16592E-03   -0.16604E-03  2944   0.282E-02 0.211E-05
 gam= 0.719 trial= 0.141  step= 0.155 mean= 0.141
 gam= 0.558 g(H,U,f)=  0.601E-03 0.855E-03 0.116E-03 ort(H,U,f) = 0.760E-03-0.666E-03-0.826E-04
CGA:  21    -0.118503562470E+04   -0.21836E-03   -0.21827E-03  2944   0.157E-02 0.115E-04
 gam= 0.558 trial= 0.141  step= 0.168 mean= 0.141
 gam= 0.855 g(H,U,f)=  0.419E-03 0.723E-03 0.201E-03 ort(H,U,f) = 0.455E-03-0.380E-03-0.644E-04
CGA:  22    -0.118503575773E+04   -0.13302E-03   -0.13287E-03  2944   0.134E-02 0.107E-04
 gam= 0.855 trial= 0.143  step= 0.089 mean= 0.143
 gam= 0.810 g(H,U,f)=  0.362E-03 0.526E-03 0.200E-03 ort(H,U,f) = 0.524E-03-0.365E-03-0.154E-03
CGA:  23    -0.118503581763E+04   -0.59905E-04   -0.60057E-04  2944   0.109E-02 0.532E-05
 gam= 0.810 trial= 0.140  step= 0.211 mean= 0.140
 gam= 0.620 g(H,U,f)=  0.264E-03 0.333E-03 0.777E-04 ort(H,U,f) = 0.238E-03-0.182E-03-0.477E-04
CGA:  24    -0.118503593331E+04   -0.11568E-03   -0.11538E-03  2944   0.675E-03 0.827E-05
 gam= 0.620 trial= 0.144  step= 0.148 mean= 0.144
 gam= 1.113 g(H,U,f)=  0.215E-03 0.396E-03 0.139E-03 ort(H,U,f) = 0.209E-03-0.146E-03-0.580E-04
CGA:  25    -0.118503598374E+04   -0.50428E-04   -0.50417E-04  2944   0.751E-03 0.444E-05
 gam= 1.113 trial= 0.144  step= 0.098 mean= 0.144
 gam= 0.751 g(H,U,f)=  0.183E-03 0.319E-03 0.620E-04 ort(H,U,f) = 0.251E-03-0.197E-03-0.525E-04
CGA:  26    -0.118503602060E+04   -0.36861E-04   -0.36903E-04  2944   0.564E-03 0.216E-05
 gam= 0.751 trial= 0.141  step= 0.191 mean= 0.141
 gam= 0.492 g(H,U,f)=  0.122E-03 0.133E-03 0.225E-04 ort(H,U,f) = 0.905E-04-0.737E-04-0.144E-04
CGA:  27    -0.118503607479E+04   -0.54194E-04   -0.54132E-04  2944   0.277E-03 0.242E-05
 gam= 0.492 trial= 0.144  step= 0.147 mean= 0.144
 gam= 1.349 g(H,U,f)=  0.904E-04 0.212E-03 0.715E-04 ort(H,U,f) = 0.864E-04-0.632E-04-0.224E-04
CGA:  28    -0.118503609529E+04   -0.20499E-04   -0.20497E-04  2944   0.374E-03 0.862E-06
 gam= 1.349 trial= 0.144  step= 0.094 mean= 0.144
 gam= 0.451 g(H,U,f)=  0.655E-04 0.802E-04 0.232E-04 ort(H,U,f) = 0.881E-04-0.608E-04-0.262E-04
CGA:  29    -0.118503611289E+04   -0.17592E-04   -0.17623E-04  2944   0.169E-03 0.117E-05
 gam= 0.451 trial= 0.142  step= 0.186 mean= 0.142
 gam= 0.651 g(H,U,f)=  0.389E-04 0.551E-04 0.159E-04 ort(H,U,f) = 0.332E-04-0.247E-04-0.867E-05
CGA:  30    -0.118503612864E+04   -0.15752E-04   -0.15755E-04  2944   0.110E-03-0.204E-06
 gam= 0.651 trial= 0.144  step= 0.123 mean= 0.144
 gam= 1.045 g(H,U,f)=  0.260E-04 0.677E-04 0.212E-04 ort(H,U,f) = 0.303E-04-0.189E-04-0.112E-04
CGA:  31    -0.118503613538E+04   -0.67392E-05   -0.67413E-05  2944   0.115E-03 0.158E-06
 gam= 1.045 trial= 0.143  step= 0.093 mean= 0.143
 final diagonalization
   4 F= -.11850361E+04 E0= -.11850172E+04  d E =-.150649E+00  mag=   118.0000
quench:  g(F)=  0.000E+00 g(S)=  0.000E+00 dE (1.order)= 0.000E+00
 bond charge predicted
 wavefunctions rotated
       N       E                     dE             d eps       ncg     rms          ort
 gam= 0.000 g(H,U,f)=  0.201E+02 0.224E+01 0.118E+01 ort(H,U,f) = 0.000E+00 0.000E+00 0.000E+00
SDA:   1    -0.117793492819E+04    0.71012E+01    0.00000E+00  2944   0.235E+02 0.000E+00
 gam= 0.000 trial= 0.140  step= 0.175 mean= 0.140
 gam= 2.359 g(H,U,f)=  0.122E+02 0.274E+02 0.159E+02 ort(H,U,f) = 0.120E+02-0.705E+01-0.417E+01
CGA:   2    -0.118001126941E+04   -0.20763E+01   -0.20615E+01  2944   0.554E+02 0.775E+00
 gam= 2.359 trial= 0.142  step= 0.107 mean= 0.142
 gam= 0.161 g(H,U,f)=  0.691E+01 0.134E+01 0.670E+00 ort(H,U,f) = 0.296E+01-0.237E+01-0.122E+01
CGA:   3    -0.118310019133E+04   -0.30889E+01   -0.30686E+01  2944   0.891E+01-0.631E+00
 gam= 0.161 trial= 0.140  step= 0.220 mean= 0.140
 gam= 1.647 g(H,U,f)=  0.311E+01 0.941E+01 0.216E+01 ort(H,U,f) = 0.296E+01-0.229E+01-0.558E+00
CGA:   4    -0.118407185330E+04   -0.97166E+00   -0.96979E+00  2944   0.147E+02 0.119E+00
 gam= 1.647 trial= 0.144  step= 0.069 mean= 0.144
 gam= 0.246 g(H,U,f)=  0.167E+01 0.157E+01 0.372E+00 ort(H,U,f) = 0.249E+01-0.172E+01-0.688E+00
CGA:   5    -0.118459686580E+04   -0.52501E+00   -0.51099E+00  2944   0.361E+01 0.819E-01
 gam= 0.246 trial= 0.141  step= 0.147 mean= 0.141
 gam= 0.527 g(H,U,f)=  0.801E+00 0.868E+00 0.238E+00 ort(H,U,f) = 0.817E+00-0.576E+00-0.147E+00
CGA:   6    -0.118486407793E+04   -0.26721E+00   -0.26667E+00  2944   0.191E+01 0.938E-01
 gam= 0.527 trial= 0.141  step= 0.113 mean= 0.141
 gam= 0.907 g(H,U,f)=  0.420E+00 0.916E+00 0.395E+00 ort(H,U,f) = 0.573E+00-0.380E+00-0.189E+00
CGA:   7    -0.118497400913E+04   -0.10993E+00   -0.11024E+00  2944   0.173E+01 0.461E-02
 gam= 0.907 trial= 0.139  step= 0.094 mean= 0.139
 gam= 0.286 g(H,U,f)=  0.180E+00 0.263E+00 0.530E-01 ort(H,U,f) = 0.243E+00-0.175E+00-0.705E-01
CGA:   8    -0.118505487949E+04   -0.80870E-01   -0.81488E-01  2944   0.496E+00-0.283E-02
 gam= 0.286 trial= 0.137  step= 0.119 mean= 0.137
 gam= 0.481 g(H,U,f)=  0.100E+00 0.111E+00 0.273E-01 ort(H,U,f) = 0.954E-01-0.743E-01-0.219E-01
CGA:   9    -0.118508429932E+04   -0.29420E-01   -0.29399E-01  2944   0.239E+00-0.800E-03
 gam= 0.481 trial= 0.136  step= 0.125 mean= 0.136
 gam= 1.196 g(H,U,f)=  0.612E-01 0.175E+00 0.494E-01 ort(H,U,f) = 0.724E-01-0.514E-01-0.221E-01
CGA:  10    -0.118509920488E+04   -0.14906E-01   -0.14891E-01  2944   0.285E+00-0.106E-02
 gam= 1.196 trial= 0.136  step= 0.104 mean= 0.136
 gam= 0.287 g(H,U,f)=  0.348E-01 0.423E-01 0.488E-02 ort(H,U,f) = 0.322E-01-0.245E-01-0.658E-02
CGA:  11    -0.118511388608E+04   -0.14681E-01   -0.14761E-01  2944   0.820E-01 0.103E-02
 gam= 0.287 trial= 0.134  step= 0.184 mean= 0.134
 gam= 0.917 g(H,U,f)=  0.200E-01 0.419E-01 0.134E-01 ort(H,U,f) = 0.117E-01-0.687E-02-0.452E-02
CGA:  12    -0.118512147451E+04   -0.75884E-02   -0.75780E-02  2944   0.752E-01 0.329E-03
 gam= 0.917 trial= 0.137  step= 0.076 mean= 0.137
 gam= 0.539 g(H,U,f)=  0.151E-01 0.204E-01 0.500E-02 ort(H,U,f) = 0.156E-01-0.976E-02-0.591E-02
CGA:  13    -0.118512433265E+04   -0.28581E-02   -0.28672E-02  2944   0.405E-01-0.582E-04
 gam= 0.539 trial= 0.134  step= 0.227 mean= 0.134
 gam= 0.724 g(H,U,f)=  0.862E-02 0.166E-01 0.408E-02 ort(H,U,f) = 0.352E-02-0.197E-02-0.171E-02
CGA:  14    -0.118512891442E+04   -0.45818E-02   -0.45901E-02  2944   0.293E-01-0.164E-03
 gam= 0.724 trial= 0.138  step= 0.094 mean= 0.138
 gam= 0.783 g(H,U,f)=  0.690E-02 0.119E-01 0.413E-02 ort(H,U,f) = 0.517E-02-0.258E-02-0.258E-02
CGA:  15    -0.118513027759E+04   -0.13632E-02   -0.13659E-02  2944   0.229E-01 0.170E-04
 gam= 0.783 trial= 0.136  step= 0.127 mean= 0.136
 gam= 0.538 g(H,U,f)=  0.547E-02 0.566E-02 0.120E-02 ort(H,U,f) = 0.443E-02-0.317E-02-0.124E-02
CGA:  16    -0.118513173625E+04   -0.14587E-02   -0.14588E-02  2944   0.123E-01 0.216E-04
 gam= 0.538 trial= 0.136  step= 0.217 mean= 0.136
 gam= 1.586 g(H,U,f)=  0.371E-02 0.118E-01 0.410E-02 ort(H,U,f) = 0.299E-02-0.199E-02-0.924E-03
CGA:  17    -0.118513308038E+04   -0.13441E-02   -0.13409E-02  2944   0.196E-01 0.708E-04
 gam= 1.586 trial= 0.140  step= 0.075 mean= 0.140
 gam= 0.283 g(H,U,f)=  0.271E-02 0.232E-02 0.500E-03 ort(H,U,f) = 0.343E-02-0.254E-02-0.898E-03
CGA:  18    -0.118513381442E+04   -0.73404E-03   -0.73473E-03  2944   0.553E-02-0.215E-05
 gam= 0.283 trial= 0.136  step= 0.200 mean= 0.136
 gam= 1.073 g(H,U,f)=  0.183E-02 0.321E-02 0.891E-03 ort(H,U,f) = 0.169E-02-0.135E-02-0.288E-03
CGA:  19    -0.118513437044E+04   -0.55601E-03   -0.55399E-03  2944   0.593E-02 0.537E-04
 gam= 1.073 trial= 0.140  step= 0.099 mean= 0.140
 gam= 0.799 g(H,U,f)=  0.142E-02 0.263E-02 0.680E-03 ort(H,U,f) = 0.214E-02-0.165E-02-0.480E-03
CGA:  20    -0.118513466684E+04   -0.29640E-03   -0.29645E-03  2944   0.473E-02 0.643E-05
 gam= 0.799 trial= 0.138  step= 0.141 mean= 0.138
 gam= 0.507 g(H,U,f)=  0.908E-03 0.119E-02 0.298E-03 ort(H,U,f) = 0.124E-02-0.101E-02-0.214E-03
CGA:  21    -0.118513500007E+04   -0.33323E-03   -0.33319E-03  2944   0.240E-02 0.189E-04
 gam= 0.507 trial= 0.138  step= 0.146 mean= 0.138
 gam= 1.068 g(H,U,f)=  0.649E-03 0.141E-02 0.510E-03 ort(H,U,f) = 0.783E-03-0.558E-03-0.219E-03
CGA:  22    -0.118513517577E+04   -0.17571E-03   -0.17568E-03  2944   0.256E-02 0.576E-05
 gam= 1.068 trial= 0.138  step= 0.091 mean= 0.138
 gam= 0.480 g(H,U,f)=  0.522E-03 0.610E-03 0.101E-03 ort(H,U,f) = 0.802E-03-0.668E-03-0.128E-03
CGA:  23    -0.118513529303E+04   -0.11726E-03   -0.11748E-03  2944   0.123E-02 0.593E-05
 gam= 0.480 trial= 0.136  step= 0.229 mean= 0.136
 gam= 1.299 g(H,U,f)=  0.375E-03 0.990E-03 0.236E-03 ort(H,U,f) = 0.369E-03-0.304E-03-0.601E-04
CGA:  24    -0.118513543459E+04   -0.14155E-03   -0.14132E-03  2944   0.160E-02 0.511E-05
 gam= 1.299 trial= 0.140  step= 0.096 mean= 0.140
 gam= 0.602 g(H,U,f)=  0.298E-03 0.500E-03 0.166E-03 ort(H,U,f) = 0.383E-03-0.264E-03-0.116E-03
CGA:  25    -0.118513551158E+04   -0.76995E-04   -0.77093E-04  2944   0.963E-03 0.296E-05
 gam= 0.602 trial= 0.138  step= 0.116 mean= 0.138
 gam= 0.595 g(H,U,f)=  0.246E-03 0.251E-03 0.764E-04 ort(H,U,f) = 0.261E-03-0.192E-03-0.683E-04
CGA:  26    -0.118513556736E+04   -0.55783E-04   -0.55801E-04  2944   0.573E-03 0.665E-06
 gam= 0.595 trial= 0.137  step= 0.223 mean= 0.137
 gam= 1.525 g(H,U,f)=  0.177E-03 0.522E-03 0.176E-03 ort(H,U,f) = 0.153E-03-0.101E-03-0.493E-04
CGA:  27    -0.118513563131E+04   -0.63943E-04   -0.63863E-04  2944   0.875E-03 0.178E-05
 gam= 1.525 trial= 0.141  step= 0.081 mean= 0.141
 gam= 0.397 g(H,U,f)=  0.137E-03 0.167E-03 0.434E-04 ort(H,U,f) = 0.158E-03-0.112E-03-0.462E-04
CGA:  28    -0.118513566693E+04   -0.35626E-04   -0.35598E-04  2944   0.347E-03-0.611E-06
 gam= 0.397 trial= 0.138  step= 0.166 mean= 0.138
 gam= 0.712 g(H,U,f)=  0.950E-04 0.119E-03 0.336E-04 ort(H,U,f) = 0.758E-04-0.580E-04-0.196E-04
CGA:  29    -0.118513569568E+04   -0.28751E-04   -0.28777E-04  2944   0.247E-03-0.187E-05
 gam= 0.712 trial= 0.140  step= 0.125 mean= 0.140
 gam= 1.248 g(H,U,f)=  0.706E-04 0.174E-03 0.640E-04 ort(H,U,f) = 0.809E-04-0.544E-04-0.282E-04
CGA:  30    -0.118513571104E+04   -0.15356E-04   -0.15343E-04  2944   0.309E-03-0.172E-05
 gam= 1.248 trial= 0.139  step= 0.126 mean= 0.139
 gam= 0.272 g(H,U,f)=  0.412E-04 0.339E-04 0.897E-05 ort(H,U,f) = 0.379E-04-0.279E-04-0.113E-04
CGA:  31    -0.118513573030E+04   -0.19265E-04   -0.19257E-04  2944   0.841E-04-0.131E-05
 gam= 0.272 trial= 0.138  step= 0.157 mean= 0.138
 gam= 0.000 g(H,U,f)=  0.293E-04 0.798E-04 0.284E-04 ort(H,U,f) = 0.291E-04-0.207E-04-0.906E-05
SDA:  32    -0.118513573688E+04   -0.65768E-05   -0.65825E-05  2944   0.138E-03-0.652E-06
 gam= 0.000 trial= 0.139  step= 0.044 mean= 0.139
 final diagonalization
   5 F= -.11851357E+04 E0= -.11851170E+04  d E =-.996015E-01  mag=   118.0000
quench:  g(F)=  0.000E+00 g(S)=  0.000E+00 dE (1.order)= 0.000E+00
 bond charge predicted
 wavefunctions rotated
       N       E                     dE             d eps       ncg     rms          ort
 gam= 0.000 g(H,U,f)=  0.513E+02 0.241E+01 0.618E+00 ort(H,U,f) = 0.000E+00 0.000E+00 0.000E+00
SDA:   1    -0.116675859343E+04    0.18377E+02    0.00000E+00  2944   0.544E+02 0.000E+00
 gam= 0.000 trial= 0.135  step= 0.307 mean= 0.135
 gam= 2.156 g(H,U,f)=  0.236E+02 0.503E+02 0.433E+02 ort(H,U,f) = 0.174E+02-0.680E+01-0.567E+01
CGA:   2    -0.117543095950E+04   -0.86724E+01   -0.83484E+01  2944   0.117E+03 0.489E+01
 gam= 2.156 trial= 0.143  step= 0.074 mean= 0.143
 gam= 0.304 g(H,U,f)=  0.178E+02 0.997E+01 0.778E+01 ort(H,U,f) = 0.121E+02-0.150E+02-0.122E+02
CGA:   3    -0.117967499059E+04   -0.42440E+01   -0.47407E+01  2944   0.356E+02-0.152E+02
 gam= 0.304 trial= 0.140  step= 0.163 mean= 0.140
 gam= 0.978 g(H,U,f)=  0.980E+01 0.176E+02 0.736E+01 ort(H,U,f) = 0.879E+01-0.771E+01-0.342E+01
CGA:   4    -0.118215823428E+04   -0.24832E+01   -0.25284E+01  2944   0.348E+02-0.233E+01
 gam= 0.978 trial= 0.141  step= 0.088 mean= 0.141
 gam= 0.370 g(H,U,f)=  0.492E+01 0.546E+01 0.250E+01 ort(H,U,f) = 0.682E+01-0.515E+01-0.234E+01
CGA:   5    -0.118356543151E+04   -0.14072E+01   -0.14319E+01  2944   0.129E+02-0.670E+00
 gam= 0.370 trial= 0.138  step= 0.105 mean= 0.138
 gam= 0.626 g(H,U,f)=  0.266E+01 0.426E+01 0.114E+01 ort(H,U,f) = 0.361E+01-0.290E+01-0.807E+00
CGA:   6    -0.118422631004E+04   -0.66088E+00   -0.66290E+00  2944   0.806E+01-0.100E+00
 gam= 0.626 trial= 0.137  step= 0.105 mean= 0.137
 gam= 0.538 g(H,U,f)=  0.128E+01 0.220E+01 0.860E+00 ort(H,U,f) = 0.194E+01-0.128E+01-0.688E+00
CGA:   7    -0.118464479899E+04   -0.41849E+00   -0.41871E+00  2944   0.434E+01-0.209E-01
 gam= 0.538 trial= 0.135  step= 0.094 mean= 0.135
 gam= 0.435 g(H,U,f)=  0.632E+00 0.977E+00 0.279E+00 ort(H,U,f) = 0.978E+00-0.725E+00-0.264E+00
CGA:   8    -0.118484995116E+04   -0.20515E+00   -0.20292E+00  2944   0.189E+01-0.102E-01
 gam= 0.435 trial= 0.133  step= 0.104 mean= 0.133
 gam= 0.632 g(H,U,f)=  0.356E+00 0.570E+00 0.267E+00 ort(H,U,f) = 0.497E+00-0.316E+00-0.172E+00
CGA:   9    -0.118494705406E+04   -0.97103E-01   -0.97729E-01  2944   0.119E+01 0.929E-02
 gam= 0.632 trial= 0.131  step= 0.106 mean= 0.131
 gam= 0.562 g(H,U,f)=  0.189E+00 0.344E+00 0.137E+00 ort(H,U,f) = 0.274E+00-0.168E+00-0.103E+00
CGA:  10    -0.118501031317E+04   -0.63259E-01   -0.63413E-01  2944   0.670E+00 0.242E-02
 gam= 0.562 trial= 0.130  step= 0.106 mean= 0.130
 gam= 0.589 g(H,U,f)=  0.117E+00 0.207E+00 0.712E-01 ort(H,U,f) = 0.145E+00-0.869E-01-0.557E-01
CGA:  11    -0.118504593137E+04   -0.35618E-01   -0.35717E-01  2944   0.395E+00 0.239E-02
 gam= 0.589 trial= 0.129  step= 0.103 mean= 0.129
 gam= 0.657 g(H,U,f)=  0.786E-01 0.137E+00 0.435E-01 ort(H,U,f) = 0.948E-01-0.649E-01-0.302E-01
CGA:  12    -0.118506642378E+04   -0.20492E-01   -0.20476E-01  2944   0.259E+00-0.239E-03
 gam= 0.657 trial= 0.128  step= 0.136 mean= 0.128
 gam= 0.817 g(H,U,f)=  0.470E-01 0.115E+00 0.501E-01 ort(H,U,f) = 0.512E-01-0.241E-01-0.247E-01
CGA:  13    -0.118508406853E+04   -0.17645E-01   -0.17627E-01  2944   0.212E+00 0.244E-02
 gam= 0.817 trial= 0.128  step= 0.089 mean= 0.128
 gam= 0.416 g(H,U,f)=  0.322E-01 0.406E-01 0.153E-01 ort(H,U,f) = 0.322E-01-0.160E-01-0.160E-01
CGA:  14    -0.118509358449E+04   -0.95160E-02   -0.95500E-02  2944   0.881E-01 0.140E-03
 gam= 0.416 trial= 0.126  step= 0.140 mean= 0.126
 gam= 1.154 g(H,U,f)=  0.229E-01 0.564E-01 0.225E-01 ort(H,U,f) = 0.217E-01-0.111E-01-0.102E-01
CGA:  15    -0.118509974445E+04   -0.61600E-02   -0.61558E-02  2944   0.102E+00 0.395E-03
 gam= 1.154 trial= 0.127  step= 0.117 mean= 0.127
 gam= 0.520 g(H,U,f)=  0.163E-01 0.275E-01 0.915E-02 ort(H,U,f) = 0.140E-01-0.718E-02-0.674E-02
CGA:  16    -0.118510571130E+04   -0.59668E-02   -0.59673E-02  2944   0.529E-01 0.807E-04
 gam= 0.520 trial= 0.126  step= 0.108 mean= 0.126
 gam= 0.791 g(H,U,f)=  0.130E-01 0.205E-01 0.834E-02 ort(H,U,f) = 0.116E-01-0.624E-02-0.520E-02
CGA:  17    -0.118510857579E+04   -0.28645E-02   -0.28688E-02  2944   0.419E-01 0.192E-03
 gam= 0.791 trial= 0.125  step= 0.139 mean= 0.125
 gam= 0.848 g(H,U,f)=  0.983E-02 0.178E-01 0.789E-02 ort(H,U,f) = 0.998E-02-0.583E-02-0.410E-02
CGA:  18    -0.118511149414E+04   -0.29184E-02   -0.29180E-02  2944   0.355E-01 0.481E-04
 gam= 0.848 trial= 0.126  step= 0.112 mean= 0.126
 gam= 0.652 g(H,U,f)=  0.724E-02 0.114E-01 0.455E-02 ort(H,U,f) = 0.832E-02-0.498E-02-0.327E-02
CGA:  19    -0.118511348713E+04   -0.19930E-02   -0.19939E-02  2944   0.231E-01 0.789E-04
 gam= 0.652 trial= 0.125  step= 0.114 mean= 0.125
 gam= 0.709 g(H,U,f)=  0.539E-02 0.809E-02 0.292E-02 ort(H,U,f) = 0.676E-02-0.478E-02-0.197E-02
CGA:  20    -0.118511481044E+04   -0.13233E-02   -0.13232E-02  2944   0.164E-01 0.276E-05
 gam= 0.709 trial= 0.125  step= 0.132 mean= 0.125
 gam= 0.854 g(H,U,f)=  0.382E-02 0.703E-02 0.315E-02 ort(H,U,f) = 0.515E-02-0.356E-02-0.154E-02
CGA:  21    -0.118511589704E+04   -0.10866E-02   -0.10864E-02  2944   0.140E-01 0.432E-04
 gam= 0.854 trial= 0.125  step= 0.108 mean= 0.125
 gam= 0.575 g(H,U,f)=  0.274E-02 0.368E-02 0.163E-02 ort(H,U,f) = 0.433E-02-0.302E-02-0.130E-02
CGA:  22    -0.118511665236E+04   -0.75533E-03   -0.75549E-03  2944   0.806E-02 0.133E-04
 gam= 0.575 trial= 0.124  step= 0.130 mean= 0.124
 gam= 0.938 g(H,U,f)=  0.202E-02 0.393E-02 0.161E-02 ort(H,U,f) = 0.299E-02-0.210E-02-0.864E-03
CGA:  23    -0.118511717696E+04   -0.52459E-03   -0.52453E-03  2944   0.756E-02 0.211E-04
 gam= 0.938 trial= 0.125  step= 0.120 mean= 0.125
 gam= 0.642 g(H,U,f)=  0.143E-02 0.252E-02 0.911E-03 ort(H,U,f) = 0.242E-02-0.181E-02-0.607E-03
CGA:  24    -0.118511763339E+04   -0.45643E-03   -0.45643E-03  2944   0.486E-02 0.770E-05
 gam= 0.642 trial= 0.124  step= 0.118 mean= 0.124
 gam= 0.797 g(H,U,f)=  0.112E-02 0.191E-02 0.846E-03 ort(H,U,f) = 0.169E-02-0.119E-02-0.488E-03
CGA:  25    -0.118511792000E+04   -0.28661E-03   -0.28666E-03  2944   0.387E-02 0.122E-04
 gam= 0.797 trial= 0.124  step= 0.130 mean= 0.124
 gam= 0.824 g(H,U,f)=  0.906E-03 0.160E-02 0.675E-03 ort(H,U,f) = 0.130E-02-0.881E-03-0.410E-03
CGA:  26    -0.118511817142E+04   -0.25142E-03   -0.25141E-03  2944   0.319E-02 0.571E-05
 gam= 0.824 trial= 0.124  step= 0.130 mean= 0.124
 gam= 0.861 g(H,U,f)=  0.741E-03 0.143E-02 0.575E-03 ort(H,U,f) = 0.100E-02-0.680E-03-0.311E-03
CGA:  27    -0.118511837899E+04   -0.20758E-03   -0.20755E-03  2944   0.274E-02 0.847E-05
 gam= 0.861 trial= 0.125  step= 0.119 mean= 0.125
 gam= 0.707 g(H,U,f)=  0.612E-03 0.971E-03 0.358E-03 ort(H,U,f) = 0.789E-03-0.547E-03-0.239E-03
CGA:  28    -0.118511854251E+04   -0.16352E-03   -0.16352E-03  2944   0.194E-02 0.250E-05
 gam= 0.707 trial= 0.124  step= 0.134 mean= 0.124
 gam= 0.969 g(H,U,f)=  0.503E-03 0.972E-03 0.405E-03 ort(H,U,f) = 0.593E-03-0.385E-03-0.204E-03
CGA:  29    -0.118511867248E+04   -0.12997E-03   -0.12995E-03  2944   0.188E-02 0.390E-05
 gam= 0.969 trial= 0.125  step= 0.123 mean= 0.125
 gam= 0.668 g(H,U,f)=  0.386E-03 0.615E-03 0.254E-03 ort(H,U,f) = 0.459E-03-0.299E-03-0.160E-03
CGA:  30    -0.118511878879E+04   -0.11631E-03   -0.11631E-03  2944   0.126E-02-0.382E-06
 gam= 0.668 trial= 0.125  step= 0.115 mean= 0.125
 gam= 0.766 g(H,U,f)=  0.301E-03 0.466E-03 0.194E-03 ort(H,U,f) = 0.342E-03-0.215E-03-0.127E-03
CGA:  31    -0.118511886074E+04   -0.71951E-04   -0.71949E-04  2944   0.961E-03-0.312E-06
 gam= 0.766 trial= 0.124  step= 0.132 mean= 0.124
 gam= 0.000 g(H,U,f)=  0.210E-03 0.398E-03 0.149E-03 ort(H,U,f) = 0.238E-03-0.157E-03-0.846E-04
SDA:  32    -0.118511892404E+04   -0.63292E-04   -0.63306E-04  2944   0.757E-03-0.358E-05
 gam= 0.000 trial= 0.125  step= 0.048 mean= 0.125
 gam= 0.339 g(H,U,f)=  0.165E-03 0.674E-04 0.239E-04 ort(H,U,f) = 0.164E-03-0.109E-03-0.556E-04
CGA:  33    -0.118511894228E+04   -0.18245E-04   -0.18253E-04  2944   0.256E-03-0.467E-06
 gam= 0.339 trial= 0.121  step= 0.395 mean= 0.121
 gam= 1.891 g(H,U,f)=  0.100E-03 0.326E-03 0.583E-04 ort(H,U,f) = 0.652E-04-0.572E-04-0.132E-04
CGA:  34    -0.118511899215E+04   -0.49875E-04   -0.50571E-04  2944   0.485E-03-0.518E-05
 gam= 1.891 trial= 0.135  step= 0.134 mean= 0.135
 gam= 0.183 g(H,U,f)=  0.610E-04 0.236E-04 0.422E-05 ort(H,U,f) = 0.118E-05-0.239E-06-0.331E-05
CGA:  35    -0.118511902403E+04   -0.31879E-04   -0.31879E-04  2944   0.887E-04-0.237E-05
 gam= 0.183 trial= 0.135  step= 0.298 mean= 0.135
 gam= 1.630 g(H,U,f)=  0.467E-04 0.711E-04 0.269E-04 ort(H,U,f) = 0.241E-04-0.177E-04-0.871E-05
CGA:  36    -0.118511903699E+04   -0.12959E-04   -0.13146E-04  2944   0.145E-03-0.231E-05
 gam= 1.630 trial= 0.143  step= 0.124 mean= 0.143
 gam= 1.316 g(H,U,f)=  0.403E-04 0.116E-03 0.344E-04 ort(H,U,f) = 0.409E-04-0.291E-04-0.129E-04
CGA:  37    -0.118511904575E+04   -0.87538E-05   -0.87440E-05  2944   0.190E-03-0.111E-05
 gam= 1.316 trial= 0.142  step= 0.100 mean= 0.142
 final diagonalization
   6 F= -.11851190E+04 E0= -.11851000E+04  d E =0.166911E-01  mag=   118.0000
quench:  g(F)=  0.000E+00 g(S)=  0.000E+00 dE (1.order)= 0.000E+00
 bond charge predicted
 wavefunctions rotated
       N       E                     dE             d eps       ncg     rms          ort
 gam= 0.000 g(H,U,f)=  0.513E+01 0.420E+00 0.292E-01 ort(H,U,f) = 0.000E+00 0.000E+00 0.000E+00
SDA:   1    -0.118318039699E+04    0.19386E+01    0.00000E+00  2944   0.558E+01 0.000E+00
 gam= 0.000 trial= 0.140  step= 0.382 mean= 0.140
 gam= 1.296 g(H,U,f)=  0.257E+01 0.326E+01 0.141E+01 ort(H,U,f) = 0.143E+01-0.832E+00-0.249E+00
CGA:   2    -0.118428410902E+04   -0.11037E+01   -0.10670E+01  2944   0.724E+01 0.352E+00
 gam= 1.296 trial= 0.152  step= 0.108 mean= 0.152
 gam= 0.920 g(H,U,f)=  0.160E+01 0.463E+01 0.429E+00 ort(H,U,f) = 0.188E+01-0.180E+01-0.137E+00
CGA:   3    -0.118469319160E+04   -0.40908E+00   -0.41629E+00  2944   0.665E+01-0.642E-01
 gam= 0.920 trial= 0.150  step= 0.071 mean= 0.150
 gam= 0.277 g(H,U,f)=  0.974E+00 0.804E+00 0.676E-01 ort(H,U,f) = 0.129E+01-0.108E+01-0.117E+00
CGA:   4    -0.118493298709E+04   -0.23980E+00   -0.23294E+00  2944   0.184E+01 0.957E-01
 gam= 0.277 trial= 0.146  step= 0.161 mean= 0.146
 gam= 0.834 g(H,U,f)=  0.413E+00 0.816E+00 0.308E+00 ort(H,U,f) = 0.449E+00-0.322E+00-0.107E+00
CGA:   5    -0.118508368044E+04   -0.15069E+00   -0.15043E+00  2944   0.154E+01 0.202E-01
 gam= 0.834 trial= 0.146  step= 0.067 mean= 0.146
 gam= 0.552 g(H,U,f)=  0.259E+00 0.464E+00 0.125E+00 ort(H,U,f) = 0.420E+00-0.300E+00-0.113E+00
CGA:   6    -0.118513654810E+04   -0.52868E-01   -0.52270E-01  2944   0.848E+00 0.727E-02
 gam= 0.552 trial= 0.142  step= 0.114 mean= 0.142
 gam= 0.328 g(H,U,f)=  0.129E+00 0.137E+00 0.116E-01 ort(H,U,f) = 0.153E+00-0.146E+00-0.108E-01
CGA:   7    -0.118518544119E+04   -0.48893E-01   -0.48685E-01  2944   0.278E+00-0.343E-02
 gam= 0.328 trial= 0.141  step= 0.150 mean= 0.141
 gam= 1.182 g(H,U,f)=  0.626E-01 0.199E+00 0.670E-01 ort(H,U,f) = 0.707E-01-0.476E-01-0.207E-01
CGA:   8    -0.118520622164E+04   -0.20780E-01   -0.20762E-01  2944   0.329E+00 0.237E-02
 gam= 1.182 trial= 0.142  step= 0.061 mean= 0.142
 gam= 0.244 g(H,U,f)=  0.366E-01 0.387E-01 0.492E-02 ort(H,U,f) = 0.606E-01-0.458E-01-0.102E-01
CGA:   9    -0.118521647194E+04   -0.10250E-01   -0.10023E-01  2944   0.802E-01 0.464E-02
 gam= 0.244 trial= 0.137  step= 0.210 mean= 0.137
 gam= 0.621 g(H,U,f)=  0.155E-01 0.285E-01 0.579E-02 ort(H,U,f) = 0.116E-01-0.116E-01-0.179E-02
CGA:  10    -0.118522491671E+04   -0.84448E-02   -0.85234E-02  2944   0.499E-01-0.185E-02
 gam= 0.621 trial= 0.141  step= 0.094 mean= 0.141
 gam= 0.890 g(H,U,f)=  0.109E-01 0.256E-01 0.779E-02 ort(H,U,f) = 0.118E-01-0.674E-02-0.502E-02
CGA:  11    -0.118522720990E+04   -0.22932E-02   -0.22868E-02  2944   0.444E-01-0.102E-05
 gam= 0.890 trial= 0.139  step= 0.093 mean= 0.139
 gam= 0.453 g(H,U,f)=  0.783E-02 0.104E-01 0.185E-02 ort(H,U,f) = 0.888E-02-0.688E-02-0.201E-02
CGA:  12    -0.118522927429E+04   -0.20644E-02   -0.20685E-02  2944   0.201E-01 0.828E-06
 gam= 0.453 trial= 0.136  step= 0.204 mean= 0.136
 gam= 0.652 g(H,U,f)=  0.446E-02 0.715E-02 0.149E-02 ort(H,U,f) = 0.251E-02-0.182E-02-0.713E-03
CGA:  13    -0.118523132679E+04   -0.20525E-02   -0.20533E-02  2944   0.131E-01-0.205E-04
 gam= 0.652 trial= 0.140  step= 0.104 mean= 0.140
 gam= 1.097 g(H,U,f)=  0.314E-02 0.877E-02 0.246E-02 ort(H,U,f) = 0.304E-02-0.178E-02-0.125E-02
CGA:  14    -0.118523200444E+04   -0.67765E-03   -0.67744E-03  2944   0.144E-01 0.314E-05
 gam= 1.097 trial= 0.138  step= 0.094 mean= 0.138
 gam= 0.346 g(H,U,f)=  0.217E-02 0.252E-02 0.280E-03 ort(H,U,f) = 0.196E-02-0.159E-02-0.364E-03
CGA:  15    -0.118523267736E+04   -0.67292E-03   -0.67335E-03  2944   0.498E-02 0.682E-05
 gam= 0.346 trial= 0.136  step= 0.214 mean= 0.136
 gam= 0.843 g(H,U,f)=  0.137E-02 0.222E-02 0.605E-03 ort(H,U,f) = 0.755E-03-0.543E-03-0.211E-03
CGA:  16    -0.118523321031E+04   -0.53295E-03   -0.53296E-03  2944   0.419E-02 0.606E-06
 gam= 0.843 trial= 0.140  step= 0.090 mean= 0.140
 gam= 0.991 g(H,U,f)=  0.101E-02 0.245E-02 0.700E-03 ort(H,U,f) = 0.111E-02-0.697E-03-0.404E-03
CGA:  17    -0.118523339993E+04   -0.18962E-03   -0.18980E-03  2944   0.416E-02 0.426E-05
 gam= 0.991 trial= 0.137  step= 0.116 mean= 0.137
 gam= 0.330 g(H,U,f)=  0.610E-03 0.649E-03 0.114E-03 ort(H,U,f) = 0.564E-03-0.436E-03-0.124E-03
CGA:  18    -0.118523364086E+04   -0.24093E-03   -0.24096E-03  2944   0.137E-02 0.411E-05
 gam= 0.330 trial= 0.136  step= 0.185 mean= 0.136
 gam= 0.884 g(H,U,f)=  0.379E-03 0.659E-03 0.177E-03 ort(H,U,f) = 0.326E-03-0.251E-03-0.755E-04
CGA:  19    -0.118523376812E+04   -0.12726E-03   -0.12727E-03  2944   0.121E-02-0.661E-06
 gam= 0.884 trial= 0.139  step= 0.099 mean= 0.139
 gam= 1.036 g(H,U,f)=  0.270E-03 0.787E-03 0.202E-03 ort(H,U,f) = 0.375E-03-0.250E-03-0.125E-03
CGA:  20    -0.118523382792E+04   -0.59797E-04   -0.59811E-04  2944   0.126E-02 0.399E-06
 gam= 1.036 trial= 0.137  step= 0.106 mean= 0.137
 gam= 0.274 g(H,U,f)=  0.165E-03 0.170E-03 0.103E-04 ort(H,U,f) = 0.227E-03-0.217E-03-0.104E-04
CGA:  21    -0.118523389451E+04   -0.66598E-04   -0.66582E-04  2944   0.345E-03-0.340E-06
 gam= 0.274 trial= 0.135  step= 0.232 mean= 0.135
 gam= 1.026 g(H,U,f)=  0.108E-03 0.191E-03 0.548E-04 ort(H,U,f) = 0.908E-04-0.742E-04-0.177E-04
CGA:  22    -0.118523393451E+04   -0.39995E-04   -0.40045E-04  2944   0.354E-03-0.108E-05
 gam= 1.026 trial= 0.140  step= 0.091 mean= 0.140
 gam= 0.922 g(H,U,f)=  0.891E-04 0.191E-03 0.460E-04 ort(H,U,f) = 0.123E-03-0.940E-04-0.284E-04
CGA:  23    -0.118523395047E+04   -0.15965E-04   -0.15974E-04  2944   0.326E-03 0.240E-06
 gam= 0.922 trial= 0.137  step= 0.117 mean= 0.137
 gam= 0.502 g(H,U,f)=  0.707E-04 0.792E-04 0.139E-04 ort(H,U,f) = 0.898E-04-0.760E-04-0.135E-04
CGA:  24    -0.118523396950E+04   -0.19028E-04   -0.19034E-04  2944   0.164E-03 0.386E-06
 gam= 0.502 trial= 0.136  step= 0.224 mean= 0.136
 gam= 0.816 g(H,U,f)=  0.486E-04 0.672E-04 0.180E-04 ort(H,U,f) = 0.365E-04-0.305E-04-0.550E-05
CGA:  25    -0.118523398788E+04   -0.18382E-04   -0.18357E-04  2944   0.134E-03 0.552E-06
 gam= 0.816 trial= 0.141  step= 0.088 mean= 0.141
 gam= 1.018 g(H,U,f)=  0.432E-04 0.700E-04 0.230E-04 ort(H,U,f) = 0.519E-04-0.370E-04-0.143E-04
CGA:  26    -0.118523399374E+04   -0.58607E-05   -0.58781E-05  2944   0.136E-03 0.648E-06
 gam= 1.018 trial= 0.138  step= 0.145 mean= 0.138
 final diagonalization
   7 F= -.11852340E+04 E0= -.11852152E+04  d E =-.114948E+00  mag=   118.0000
quench:  g(F)=  0.000E+00 g(S)=  0.000E+00 dE (1.order)= 0.000E+00
 bond charge predicted
 wavefunctions rotated
       N       E                     dE             d eps       ncg     rms          ort
 gam= 0.000 g(H,U,f)=  0.108E+01 0.310E-01 0.485E-02 ort(H,U,f) = 0.000E+00 0.000E+00 0.000E+00
SDA:   1    -0.118484743733E+04    0.38655E+00    0.00000E+00  2944   0.112E+01 0.000E+00
 gam= 0.000 trial= 0.138  step= 0.423 mean= 0.138
 gam= 2.022 g(H,U,f)=  0.495E+00 0.156E+01 0.208E+00 ort(H,U,f) = 0.176E+00-0.156E+00-0.231E-01
CGA:   2    -0.118508304346E+04   -0.23561E+00   -0.23600E+00  2944   0.226E+01-0.277E-02
 gam= 2.022 trial= 0.153  step= 0.054 mean= 0.153
 gam= 0.247 g(H,U,f)=  0.397E+00 0.124E+00 0.368E-01 ort(H,U,f) = 0.316E+00-0.264E+00-0.958E-01
CGA:   3    -0.118514244032E+04   -0.59397E-01   -0.60690E-01  2944   0.558E+00-0.435E-01
 gam= 0.247 trial= 0.148  step= 0.250 mean= 0.148
 gam= 0.571 g(H,U,f)=  0.132E+00 0.156E+00 0.315E-01 ort(H,U,f) = 0.826E-01-0.757E-01-0.150E-01
CGA:   4    -0.118521049533E+04   -0.68055E-01   -0.68516E-01  2944   0.319E+00-0.821E-02
 gam= 0.571 trial= 0.153  step= 0.118 mean= 0.153
 gam= 0.780 g(H,U,f)=  0.716E-01 0.129E+00 0.482E-01 ort(H,U,f) = 0.688E-01-0.456E-01-0.225E-01
CGA:   5    -0.118522902946E+04   -0.18534E-01   -0.18595E-01  2944   0.249E+00 0.671E-03
 gam= 0.780 trial= 0.151  step= 0.072 mean= 0.151
 gam= 0.332 g(H,U,f)=  0.420E-01 0.336E-01 0.693E-02 ort(H,U,f) = 0.574E-01-0.421E-01-0.129E-01
CGA:   6    -0.118523821422E+04   -0.91848E-02   -0.90250E-02  2944   0.825E-01 0.238E-02
 gam= 0.332 trial= 0.147  step= 0.189 mean= 0.147
 gam= 0.576 g(H,U,f)=  0.147E-01 0.287E-01 0.411E-02 ort(H,U,f) = 0.134E-01-0.114E-01-0.176E-02
CGA:   7    -0.118524610035E+04   -0.78861E-02   -0.78783E-02  2944   0.475E-01 0.303E-03
 gam= 0.576 trial= 0.149  step= 0.100 mean= 0.149
 gam= 0.539 g(H,U,f)=  0.756E-02 0.138E-01 0.421E-02 ort(H,U,f) = 0.779E-02-0.564E-02-0.212E-02
CGA:   8    -0.118524847687E+04   -0.23765E-02   -0.23811E-02  2944   0.256E-01 0.209E-04
 gam= 0.539 trial= 0.147  step= 0.077 mean= 0.147
 gam= 0.440 g(H,U,f)=  0.487E-02 0.513E-02 0.127E-02 ort(H,U,f) = 0.587E-02-0.402E-02-0.181E-02
CGA:   9    -0.118524946159E+04   -0.98472E-03   -0.98248E-03  2944   0.113E-01 0.418E-04
 gam= 0.440 trial= 0.143  step= 0.210 mean= 0.143
 gam= 0.531 g(H,U,f)=  0.231E-02 0.295E-02 0.714E-03 ort(H,U,f) = 0.139E-02-0.103E-02-0.355E-03
CGA:  10    -0.118525064811E+04   -0.11865E-02   -0.11863E-02  2944   0.598E-02 0.753E-05
 gam= 0.531 trial= 0.147  step= 0.113 mean= 0.147
 gam= 1.166 g(H,U,f)=  0.154E-02 0.422E-02 0.120E-02 ort(H,U,f) = 0.150E-02-0.899E-03-0.602E-03
CGA:  11    -0.118525098507E+04   -0.33697E-03   -0.33709E-03  2944   0.697E-02 0.198E-05
 gam= 1.166 trial= 0.145  step= 0.107 mean= 0.145
 gam= 0.233 g(H,U,f)=  0.890E-03 0.648E-03 0.886E-04 ort(H,U,f) = 0.547E-03-0.381E-03-0.173E-03
CGA:  12    -0.118525135909E+04   -0.37402E-03   -0.37372E-03  2944   0.163E-02-0.580E-05
 gam= 0.233 trial= 0.143  step= 0.251 mean= 0.143
 gam= 1.888 g(H,U,f)=  0.523E-03 0.200E-02 0.543E-03 ort(H,U,f) = 0.331E-03-0.237E-03-0.955E-04
CGA:  13    -0.118525156293E+04   -0.20384E-03   -0.20392E-03  2944   0.307E-02-0.172E-05
 gam= 1.888 trial= 0.148  step= 0.073 mean= 0.148
 gam= 0.320 g(H,U,f)=  0.378E-03 0.479E-03 0.125E-03 ort(H,U,f) = 0.262E-03-0.992E-04-0.164E-03
CGA:  14    -0.118525167549E+04   -0.11256E-03   -0.11239E-03  2944   0.981E-03-0.157E-05
 gam= 0.320 trial= 0.145  step= 0.158 mean= 0.145
 gam= 0.717 g(H,U,f)=  0.274E-03 0.352E-03 0.774E-04 ort(H,U,f) = 0.164E-03-0.106E-03-0.565E-04
CGA:  15    -0.118525175287E+04   -0.77374E-04   -0.77365E-04  2944   0.704E-03 0.150E-05
 gam= 0.717 trial= 0.145  step= 0.160 mean= 0.145
 gam= 1.145 g(H,U,f)=  0.193E-03 0.475E-03 0.137E-03 ort(H,U,f) = 0.153E-03-0.106E-03-0.453E-04
CGA:  16    -0.118525180934E+04   -0.56469E-04   -0.56455E-04  2944   0.805E-03 0.176E-05
 gam= 1.145 trial= 0.146  step= 0.083 mean= 0.146
 gam= 0.468 g(H,U,f)=  0.148E-03 0.194E-03 0.342E-04 ort(H,U,f) = 0.167E-03-0.125E-03-0.395E-04
CGA:  17    -0.118525184260E+04   -0.33260E-04   -0.33339E-04  2944   0.377E-03 0.234E-05
 gam= 0.468 trial= 0.143  step= 0.194 mean= 0.143
 gam= 0.569 g(H,U,f)=  0.857E-04 0.103E-03 0.256E-04 ort(H,U,f) = 0.677E-04-0.496E-04-0.144E-04
CGA:  18    -0.118525187939E+04   -0.36794E-04   -0.36700E-04  2944   0.215E-03 0.368E-05
 gam= 0.569 trial= 0.146  step= 0.116 mean= 0.146
 gam= 1.099 g(H,U,f)=  0.620E-04 0.130E-03 0.439E-04 ort(H,U,f) = 0.711E-04-0.517E-04-0.185E-04
CGA:  19    -0.118525189199E+04   -0.12601E-04   -0.12614E-04  2944   0.236E-03 0.877E-06
 gam= 1.099 trial= 0.144  step= 0.105 mean= 0.144
 gam= 0.422 g(H,U,f)=  0.452E-04 0.441E-04 0.102E-04 ort(H,U,f) = 0.644E-04-0.510E-04-0.135E-04
CGA:  20    -0.118525190442E+04   -0.12428E-04   -0.12426E-04  2944   0.996E-04-0.104E-06
 gam= 0.422 trial= 0.142  step= 0.251 mean= 0.142
 gam= 1.088 g(H,U,f)=  0.263E-04 0.626E-04 0.194E-04 ort(H,U,f) = 0.229E-04-0.181E-04-0.496E-05
CGA:  21    -0.118525191690E+04   -0.12480E-04   -0.12489E-04  2944   0.108E-03-0.162E-06
 gam= 1.088 trial= 0.148  step= 0.069 mean= 0.148
 gam= 0.452 g(H,U,f)=  0.213E-04 0.221E-04 0.556E-05 ort(H,U,f) = 0.309E-04-0.241E-04-0.726E-05
CGA:  22    -0.118525192064E+04   -0.37362E-05   -0.37188E-05  2944   0.490E-04-0.436E-06
 gam= 0.452 trial= 0.144  step= 0.226 mean= 0.144
 final diagonalization
   8 F= -.11852519E+04 E0= -.11852331E+04  d E =-.179269E-01  mag=   118.0000
quench:  g(F)=  0.000E+00 g(S)=  0.000E+00 dE (1.order)= 0.000E+00
 bond charge predicted
 wavefunctions rotated
       N       E                     dE             d eps       ncg     rms          ort
 gam= 0.000 g(H,U,f)=  0.251E+01 0.321E+00 0.756E-01 ort(H,U,f) = 0.000E+00 0.000E+00 0.000E+00
SDA:   1    -0.118433597571E+04    0.91594E+00    0.00000E+00  2944   0.291E+01 0.000E+00
 gam= 0.000 trial= 0.148  step= 0.198 mean= 0.148
 gam= 2.383 g(H,U,f)=  0.143E+01 0.374E+01 0.177E+01 ort(H,U,f) = 0.137E+01-0.932E+00-0.401E+00
CGA:   2    -0.118462571639E+04   -0.28974E+00   -0.28853E+00  2944   0.693E+01 0.381E-01
 gam= 2.383 trial= 0.150  step= 0.098 mean= 0.150
 gam= 0.318 g(H,U,f)=  0.103E+01 0.103E+01 0.146E+00 ort(H,U,f) = 0.790E+00-0.659E+00-0.150E+00
CGA:   3    -0.118496948001E+04   -0.34376E+00   -0.34519E+00  2944   0.221E+01-0.191E-01
 gam= 0.318 trial= 0.148  step= 0.121 mean= 0.148
 gam= 0.466 g(H,U,f)=  0.615E+00 0.323E+00 0.885E-01 ort(H,U,f) = 0.511E+00-0.446E+00-0.110E+00
CGA:   4    -0.118510454497E+04   -0.13506E+00   -0.13311E+00  2944   0.103E+01-0.452E-01
 gam= 0.466 trial= 0.146  step= 0.207 mean= 0.146
 gam= 0.955 g(H,U,f)=  0.187E+00 0.660E+00 0.134E+00 ort(H,U,f) = 0.184E+00-0.148E+00-0.330E-01
CGA:   5    -0.118520861494E+04   -0.10407E+00   -0.10396E+00  2944   0.981E+00 0.325E-02
 gam= 0.955 trial= 0.149  step= 0.055 mean= 0.149
 gam= 0.180 g(H,U,f)=  0.122E+00 0.452E-01 0.872E-02 ort(H,U,f) = 0.117E+00-0.102E+00-0.249E-01
CGA:   6    -0.118523521826E+04   -0.26603E-01   -0.26985E-01  2944   0.176E+00-0.105E-01
 gam= 0.180 trial= 0.145  step= 0.248 mean= 0.145
 gam= 1.003 g(H,U,f)=  0.433E-01 0.106E+00 0.277E-01 ort(H,U,f) = 0.388E-01-0.319E-01-0.860E-02
CGA:   7    -0.118525668574E+04   -0.21467E-01   -0.21566E-01  2944   0.177E+00-0.173E-02
 gam= 1.003 trial= 0.150  step= 0.075 mean= 0.150
 gam= 0.455 g(H,U,f)=  0.239E-01 0.441E-01 0.124E-01 ort(H,U,f) = 0.321E-01-0.226E-01-0.100E-01
CGA:   8    -0.118526319984E+04   -0.65141E-02   -0.65545E-02  2944   0.804E-01-0.534E-03
 gam= 0.455 trial= 0.146  step= 0.100 mean= 0.146
 gam= 0.257 g(H,U,f)=  0.117E-01 0.732E-02 0.171E-02 ort(H,U,f) = 0.120E-01-0.882E-02-0.319E-02
CGA:   9    -0.118526722659E+04   -0.40268E-02   -0.40051E-02  2944   0.207E-01-0.292E-04
 gam= 0.257 trial= 0.144  step= 0.183 mean= 0.144
 gam= 1.673 g(H,U,f)=  0.640E-02 0.219E-01 0.633E-02 ort(H,U,f) = 0.668E-02-0.501E-02-0.157E-02
CGA:  10    -0.118526912245E+04   -0.18959E-02   -0.18931E-02  2944   0.346E-01 0.102E-03
 gam= 1.673 trial= 0.146  step= 0.083 mean= 0.146
 gam= 0.258 g(H,U,f)=  0.354E-02 0.457E-02 0.824E-03 ort(H,U,f) = 0.363E-02-0.233E-02-0.127E-02
CGA:  11    -0.118527057074E+04   -0.14483E-02   -0.14448E-02  2944   0.894E-02 0.298E-04
 gam= 0.258 trial= 0.143  step= 0.145 mean= 0.143
 gam= 0.689 g(H,U,f)=  0.212E-02 0.325E-02 0.789E-03 ort(H,U,f) = 0.152E-02-0.106E-02-0.429E-03
CGA:  12    -0.118527121752E+04   -0.64678E-03   -0.64672E-03  2944   0.616E-02 0.303E-04
 gam= 0.689 trial= 0.143  step= 0.100 mean= 0.143
 gam= 0.921 g(H,U,f)=  0.159E-02 0.331E-02 0.774E-03 ort(H,U,f) = 0.169E-02-0.124E-02-0.457E-03
CGA:  13    -0.118527152732E+04   -0.30980E-03   -0.30949E-03  2944   0.567E-02-0.518E-05
 gam= 0.921 trial= 0.141  step= 0.150 mean= 0.141
 gam= 0.436 g(H,U,f)=  0.931E-03 0.120E-02 0.337E-03 ort(H,U,f) = 0.504E-03-0.239E-03-0.252E-03
CGA:  14    -0.118527195123E+04   -0.42391E-03   -0.42380E-03  2944   0.247E-02 0.127E-04
 gam= 0.436 trial= 0.141  step= 0.135 mean= 0.141
 gam= 1.103 g(H,U,f)=  0.620E-03 0.163E-02 0.469E-03 ort(H,U,f) = 0.442E-03-0.229E-03-0.214E-03
CGA:  15    -0.118527211803E+04   -0.16679E-03   -0.16679E-03  2944   0.272E-02-0.447E-06
 gam= 1.103 trial= 0.141  step= 0.087 mean= 0.141
 gam= 0.352 g(H,U,f)=  0.482E-03 0.414E-03 0.618E-04 ort(H,U,f) = 0.380E-03-0.276E-03-0.102E-03
CGA:  16    -0.118527223660E+04   -0.11857E-03   -0.11878E-03  2944   0.958E-03 0.220E-05
 gam= 0.352 trial= 0.138  step= 0.274 mean= 0.138
 gam= 1.823 g(H,U,f)=  0.310E-03 0.114E-02 0.300E-03 ort(H,U,f) = 0.205E-03-0.152E-03-0.464E-04
CGA:  17    -0.118527236837E+04   -0.13177E-03   -0.13137E-03  2944   0.175E-02 0.593E-05
 gam= 1.823 trial= 0.145  step= 0.071 mean= 0.145
 gam= 0.288 g(H,U,f)=  0.227E-03 0.214E-03 0.612E-04 ort(H,U,f) = 0.244E-03-0.147E-03-0.939E-04
CGA:  18    -0.118527243018E+04   -0.61806E-04   -0.61981E-04  2944   0.502E-03 0.324E-05
 gam= 0.288 trial= 0.141  step= 0.175 mean= 0.141
 gam= 0.998 g(H,U,f)=  0.163E-03 0.265E-03 0.731E-04 ort(H,U,f) = 0.144E-03-0.106E-03-0.361E-04
CGA:  19    -0.118527247427E+04   -0.44094E-04   -0.44073E-04  2944   0.501E-03 0.133E-05
 gam= 0.998 trial= 0.143  step= 0.117 mean= 0.143
 gam= 0.924 g(H,U,f)=  0.122E-03 0.277E-03 0.638E-04 ort(H,U,f) = 0.163E-03-0.127E-03-0.340E-04
CGA:  20    -0.118527250351E+04   -0.29237E-04   -0.29262E-04  2944   0.463E-03 0.190E-05
 gam= 0.924 trial= 0.141  step= 0.113 mean= 0.141
 gam= 0.504 g(H,U,f)=  0.889E-04 0.124E-03 0.200E-04 ort(H,U,f) = 0.128E-03-0.108E-03-0.182E-04
CGA:  21    -0.118527252979E+04   -0.26283E-04   -0.26298E-04  2944   0.233E-03 0.109E-05
 gam= 0.504 trial= 0.140  step= 0.159 mean= 0.140
 gam= 0.907 g(H,U,f)=  0.567E-04 0.121E-03 0.337E-04 ort(H,U,f) = 0.652E-04-0.520E-04-0.128E-04
CGA:  22    -0.118527254844E+04   -0.18648E-04   -0.18644E-04  2944   0.211E-03 0.333E-06
 gam= 0.907 trial= 0.141  step= 0.083 mean= 0.141
 gam= 0.524 g(H,U,f)=  0.456E-04 0.526E-04 0.125E-04 ort(H,U,f) = 0.676E-04-0.547E-04-0.132E-04
CGA:  23    -0.118527255725E+04   -0.88059E-05   -0.87939E-05  2944   0.111E-03-0.358E-06
 gam= 0.524 trial= 0.138  step= 0.184 mean= 0.138
 gam= 0.973 g(H,U,f)=  0.352E-04 0.591E-04 0.134E-04 ort(H,U,f) = 0.373E-04-0.314E-04-0.599E-05
CGA:  24    -0.118527256743E+04   -0.10184E-04   -0.10187E-04  2944   0.108E-03-0.124E-06
 gam= 0.973 trial= 0.140  step= 0.134 mean= 0.140
 gam= 1.097 g(H,U,f)=  0.238E-04 0.749E-04 0.195E-04 ort(H,U,f) = 0.318E-04-0.238E-04-0.866E-05
CGA:  25    -0.118527257467E+04   -0.72366E-05   -0.72348E-05  2944   0.118E-03-0.661E-06
 gam= 1.097 trial= 0.140  step= 0.090 mean= 0.140
 final diagonalization
   9 F= -.11852726E+04 E0= -.11852537E+04  d E =-.206540E-01  mag=   118.0000
quench:  g(F)=  0.000E+00 g(S)=  0.000E+00 dE (1.order)= 0.000E+00
 bond charge predicted
 wavefunctions rotated
       N       E                     dE             d eps       ncg     rms          ort
 gam= 0.000 g(H,U,f)=  0.945E+01 0.204E+00 0.130E-01 ort(H,U,f) = 0.000E+00 0.000E+00 0.000E+00
SDA:   1    -0.118179162411E+04    0.34809E+01    0.00000E+00  2944   0.966E+01 0.000E+00
 gam= 0.000 trial= 0.138  step= 0.436 mean= 0.138
 gam= 1.204 g(H,U,f)=  0.442E+01 0.508E+01 0.214E+01 ort(H,U,f) = 0.907E+00-0.709E+00-0.246E+00
CGA:   2    -0.118389272443E+04   -0.21011E+01   -0.21063E+01  2944   0.116E+02-0.476E-01
 gam= 1.204 trial= 0.153  step= 0.072 mean= 0.153
 gam= 0.582 g(H,U,f)=  0.346E+01 0.302E+01 0.295E+00 ort(H,U,f) = 0.323E+01-0.283E+01-0.228E+00
CGA:   3    -0.118433251334E+04   -0.43979E+00   -0.41885E+00  2944   0.677E+01 0.172E+00
 gam= 0.582 trial= 0.149  step= 0.151 mean= 0.149
 gam= 0.532 g(H,U,f)=  0.144E+01 0.180E+01 0.368E+00 ort(H,U,f) = 0.175E+01-0.133E+01-0.238E+00
CGA:   4    -0.118485196825E+04   -0.51945E+00   -0.51903E+00  2944   0.360E+01 0.181E+00
 gam= 0.532 trial= 0.149  step= 0.135 mean= 0.149
 gam= 0.510 g(H,U,f)=  0.622E+00 0.108E+01 0.134E+00 ort(H,U,f) = 0.574E+00-0.465E+00-0.879E-01
CGA:   5    -0.118510099262E+04   -0.24902E+00   -0.24944E+00  2944   0.184E+01 0.216E-01
 gam= 0.510 trial= 0.148  step= 0.074 mean= 0.148
 gam= 0.519 g(H,U,f)=  0.407E+00 0.441E+00 0.107E+00 ort(H,U,f) = 0.462E+00-0.372E+00-0.106E+00
CGA:   6    -0.118516837437E+04   -0.67382E-01   -0.68293E-01  2944   0.955E+00-0.165E-01
 gam= 0.519 trial= 0.144  step= 0.133 mean= 0.144
 gam= 0.492 g(H,U,f)=  0.181E+00 0.261E+00 0.275E-01 ort(H,U,f) = 0.228E+00-0.196E+00-0.254E-01
CGA:   7    -0.118523117416E+04   -0.62800E-01   -0.62886E-01  2944   0.470E+00 0.636E-02
 gam= 0.492 trial= 0.144  step= 0.156 mean= 0.144
 gam= 0.421 g(H,U,f)=  0.651E-01 0.104E+00 0.283E-01 ort(H,U,f) = 0.569E-01-0.454E-01-0.116E-01
CGA:   8    -0.118526808684E+04   -0.36913E-01   -0.36914E-01  2944   0.198E+00-0.105E-03
 gam= 0.421 trial= 0.144  step= 0.067 mean= 0.144
 gam= 0.562 g(H,U,f)=  0.457E-01 0.553E-01 0.102E-01 ort(H,U,f) = 0.534E-01-0.428E-01-0.114E-01
CGA:   9    -0.118527467820E+04   -0.65914E-02   -0.66302E-02  2944   0.111E+00-0.760E-03
 gam= 0.562 trial= 0.140  step= 0.181 mean= 0.140
 gam= 0.460 g(H,U,f)=  0.215E-01 0.262E-01 0.343E-02 ort(H,U,f) = 0.188E-01-0.153E-01-0.291E-02
CGA:  10    -0.118528470155E+04   -0.10023E-01   -0.10009E-01  2944   0.512E-01 0.535E-03
 gam= 0.460 trial= 0.142  step= 0.163 mean= 0.142
 gam= 1.022 g(H,U,f)=  0.119E-01 0.344E-01 0.594E-02 ort(H,U,f) = 0.961E-02-0.768E-02-0.171E-02
CGA:  11    -0.118528889894E+04   -0.41974E-02   -0.41937E-02  2944   0.523E-01 0.223E-03
 gam= 1.022 trial= 0.143  step= 0.074 mean= 0.143
 gam= 0.442 g(H,U,f)=  0.813E-02 0.122E-01 0.280E-02 ort(H,U,f) = 0.868E-02-0.585E-02-0.284E-02
CGA:  12    -0.118529084177E+04   -0.19428E-02   -0.19439E-02  2944   0.231E-01-0.915E-05
 gam= 0.442 trial= 0.140  step= 0.136 mean= 0.140
 gam= 0.592 g(H,U,f)=  0.530E-02 0.723E-02 0.113E-02 ort(H,U,f) = 0.417E-02-0.310E-02-0.102E-02
CGA:  13    -0.118529241167E+04   -0.15699E-02   -0.15701E-02  2944   0.137E-01 0.493E-04
 gam= 0.592 trial= 0.140  step= 0.187 mean= 0.140
 gam= 0.969 g(H,U,f)=  0.329E-02 0.825E-02 0.170E-02 ort(H,U,f) = 0.199E-02-0.137E-02-0.619E-03
CGA:  14    -0.118529368980E+04   -0.12781E-02   -0.12782E-02  2944   0.132E-01 0.151E-05
 gam= 0.969 trial= 0.142  step= 0.081 mean= 0.142
 gam= 0.646 g(H,U,f)=  0.258E-02 0.502E-02 0.951E-03 ort(H,U,f) = 0.238E-02-0.169E-02-0.678E-03
CGA:  15    -0.118529422370E+04   -0.53390E-03   -0.53356E-03  2944   0.855E-02 0.693E-05
 gam= 0.646 trial= 0.139  step= 0.139 mean= 0.139
 gam= 0.442 g(H,U,f)=  0.186E-02 0.161E-02 0.315E-03 ort(H,U,f) = 0.119E-02-0.851E-03-0.335E-03
CGA:  16    -0.118529481637E+04   -0.59267E-03   -0.59267E-03  2944   0.378E-02 0.854E-06
 gam= 0.442 trial= 0.139  step= 0.242 mean= 0.139
 gam= 1.748 g(H,U,f)=  0.134E-02 0.417E-02 0.110E-02 ort(H,U,f) = 0.901E-03-0.616E-03-0.274E-03
CGA:  17    -0.118529527395E+04   -0.45758E-03   -0.45701E-03  2944   0.661E-02 0.110E-04
 gam= 1.748 trial= 0.144  step= 0.071 mean= 0.144
 gam= 0.383 g(H,U,f)=  0.990E-03 0.134E-02 0.197E-03 ort(H,U,f) = 0.130E-02-0.102E-02-0.265E-03
CGA:  18    -0.118529550976E+04   -0.23581E-03   -0.23598E-03  2944   0.253E-02 0.829E-05
 gam= 0.383 trial= 0.141  step= 0.173 mean= 0.141
 gam= 0.665 g(H,U,f)=  0.670E-03 0.924E-03 0.863E-04 ort(H,U,f) = 0.612E-03-0.566E-03-0.462E-04
CGA:  19    -0.118529572855E+04   -0.21879E-03   -0.21884E-03  2944   0.168E-02-0.269E-06
 gam= 0.665 trial= 0.142  step= 0.147 mean= 0.142
 gam= 1.161 g(H,U,f)=  0.486E-03 0.112E-02 0.342E-03 ort(H,U,f) = 0.569E-03-0.444E-03-0.121E-03
CGA:  20    -0.118529585172E+04   -0.12316E-03   -0.12316E-03  2944   0.195E-02 0.386E-05
 gam= 1.161 trial= 0.142  step= 0.089 mean= 0.142
 gam= 0.567 g(H,U,f)=  0.377E-03 0.628E-03 0.998E-04 ort(H,U,f) = 0.649E-03-0.553E-03-0.932E-04
CGA:  21    -0.118529593847E+04   -0.86750E-04   -0.86784E-04  2944   0.111E-02 0.188E-05
 gam= 0.567 trial= 0.140  step= 0.174 mean= 0.140
 gam= 0.554 g(H,U,f)=  0.238E-03 0.304E-03 0.711E-04 ort(H,U,f) = 0.269E-03-0.221E-03-0.434E-04
CGA:  22    -0.118529603470E+04   -0.96233E-04   -0.96145E-04  2944   0.613E-03 0.472E-05
 gam= 0.554 trial= 0.141  step= 0.127 mean= 0.141
 gam= 1.138 g(H,U,f)=  0.186E-03 0.406E-03 0.106E-03 ort(H,U,f) = 0.231E-03-0.185E-03-0.459E-04
CGA:  23    -0.118529607367E+04   -0.38972E-04   -0.38970E-04  2944   0.698E-03-0.335E-06
 gam= 1.138 trial= 0.141  step= 0.102 mean= 0.141
 gam= 0.675 g(H,U,f)=  0.159E-03 0.262E-03 0.495E-04 ort(H,U,f) = 0.246E-03-0.201E-03-0.454E-04
CGA:  24    -0.118529610937E+04   -0.35697E-04   -0.35710E-04  2944   0.471E-03 0.230E-06
 gam= 0.675 trial= 0.139  step= 0.195 mean= 0.139
 gam= 0.635 g(H,U,f)=  0.111E-03 0.164E-03 0.235E-04 ort(H,U,f) = 0.992E-04-0.880E-04-0.112E-04
CGA:  25    -0.118529615520E+04   -0.45833E-04   -0.45837E-04  2944   0.299E-03 0.317E-07
 gam= 0.635 trial= 0.142  step= 0.125 mean= 0.142
 gam= 1.212 g(H,U,f)=  0.889E-04 0.215E-03 0.589E-04 ort(H,U,f) = 0.970E-04-0.730E-04-0.232E-04
CGA:  26    -0.118529617393E+04   -0.18730E-04   -0.18737E-04  2944   0.363E-03 0.788E-06
 gam= 1.212 trial= 0.141  step= 0.099 mean= 0.141
 gam= 0.495 g(H,U,f)=  0.722E-04 0.928E-04 0.144E-04 ort(H,U,f) = 0.925E-04-0.756E-04-0.169E-04
CGA:  27    -0.118529619187E+04   -0.17939E-04   -0.17932E-04  2944   0.179E-03-0.485E-08
 gam= 0.495 trial= 0.139  step= 0.232 mean= 0.139
 gam= 0.822 g(H,U,f)=  0.474E-04 0.846E-04 0.154E-04 ort(H,U,f) = 0.311E-04-0.260E-04-0.525E-05
CGA:  28    -0.118529621263E+04   -0.20760E-04   -0.20771E-04  2944   0.147E-03-0.228E-06
 gam= 0.822 trial= 0.143  step= 0.093 mean= 0.143
 gam= 0.925 g(H,U,f)=  0.376E-04 0.807E-04 0.180E-04 ort(H,U,f) = 0.419E-04-0.309E-04-0.116E-04
CGA:  29    -0.118529621947E+04   -0.68358E-05   -0.68225E-05  2944   0.136E-03-0.509E-06
 gam= 0.925 trial= 0.141  step= 0.138 mean= 0.141
 final diagonalization
  10 F= -.11852962E+04 E0= -.11852772E+04  d E =-.236448E-01  mag=   118.0000
quench:  g(F)=  0.000E+00 g(S)=  0.000E+00 dE (1.order)= 0.000E+00
 bond charge predicted
 wavefunctions rotated
       N       E                     dE             d eps       ncg     rms          ort
 gam= 0.000 g(H,U,f)=  0.601E+02 0.106E+02 0.314E+01 ort(H,U,f) = 0.000E+00 0.000E+00 0.000E+00
SDA:   1    -0.115817652398E+04    0.27120E+02    0.00000E+00  2944   0.739E+02 0.000E+00
 gam= 0.000 trial= 0.141  step= 0.255 mean= 0.141
 gam= 0.881 g(H,U,f)=  0.333E+02 0.208E+02 0.110E+02 ort(H,U,f) = 0.309E+02-0.874E+01-0.420E+01
CGA:   2    -0.116864215424E+04   -0.10466E+02   -0.94033E+01  2944   0.651E+02 0.179E+02
 gam= 0.881 trial= 0.146  step= 0.184 mean= 0.146
 gam= 0.983 g(H,U,f)=  0.178E+02 0.310E+02 0.152E+02 ort(H,U,f) = 0.201E+02-0.138E+02-0.850E+01
CGA:   3    -0.117596374250E+04   -0.73216E+01   -0.74407E+01  2944   0.640E+02-0.225E+01
 gam= 0.983 trial= 0.148  step= 0.091 mean= 0.148
 gam= 0.566 g(H,U,f)=  0.115E+02 0.141E+02 0.107E+02 ort(H,U,f) = 0.118E+02-0.146E+02-0.118E+02
CGA:   4    -0.117907444726E+04   -0.31107E+01   -0.28073E+01  2944   0.362E+02-0.147E+02
 gam= 0.566 trial= 0.145  step= 0.089 mean= 0.145
 gam= 1.585 g(H,U,f)=  0.761E+01 0.260E+02 0.238E+02 ort(H,U,f) = 0.811E+01-0.414E+01-0.559E+01
CGA:   5    -0.118024011799E+04   -0.11657E+01   -0.12369E+01  2944   0.575E+02-0.161E+01
 gam= 1.585 trial= 0.142  step= 0.040 mean= 0.142
 gam= 0.000 g(H,U,f)=  0.476E+01 0.983E+01 0.489E+01 ort(H,U,f) = 0.380E+01-0.225E+02-0.124E+02
CGA:   6    -0.118129022895E+04   -0.10501E+01   -0.10859E+01  2944   0.195E+02-0.311E+02
 gam= 0.000 trial= 0.137  step= 0.073 mean= 0.137
 gam= 0.273 g(H,U,f)=  0.281E+01 0.164E+01 0.879E+00 ort(H,U,f) = 0.245E+01-0.275E+01-0.168E+01
CGA:   7    -0.118183477039E+04   -0.54454E+00   -0.70982E+00  2944   0.533E+01-0.198E+01
 gam= 0.273 trial= 0.134  step= 0.219 mean= 0.134
 gam= 2.733 g(H,U,f)=  0.134E+01 0.828E+01 0.494E+01 ort(H,U,f) = 0.147E+01-0.145E+01-0.119E+01
CGA:   8    -0.118230183013E+04   -0.46706E+00   -0.52501E+00  2944   0.146E+02-0.117E+01
 gam= 2.733 trial= 0.138  step= 0.060 mean= 0.138
 gam= 0.307 g(H,U,f)=  0.788E+00 0.259E+01 0.108E+01 ort(H,U,f) = 0.927E+00-0.120E+01-0.208E+00
CGA:   9    -0.118262597572E+04   -0.32415E+00   -0.34239E+00  2944   0.446E+01-0.478E+00
 gam= 0.307 trial= 0.134  step= 0.071 mean= 0.134
 gam= 0.262 g(H,U,f)=  0.404E+00 0.514E+00 0.250E+00 ort(H,U,f) = 0.195E+00-0.213E+00-0.207E+00
CGA:  10    -0.118276167723E+04   -0.13570E+00   -0.15368E+00  2944   0.117E+01-0.225E+00
 gam= 0.262 trial= 0.131  step= 0.057 mean= 0.131
 gam= 0.848 g(H,U,f)=  0.334E+00 0.539E+00 0.118E+00 ort(H,U,f) = 0.353E+00-0.270E+00-0.104E+00
CGA:  11    -0.118279222960E+04   -0.30552E-01   -0.31399E-01  2944   0.991E+00-0.204E-01
 gam= 0.848 trial= 0.128  step= 0.144 mean= 0.128
 gam= 1.173 g(H,U,f)=  0.237E+00 0.694E+00 0.232E+00 ort(H,U,f) = 0.344E+00-0.219E+00-0.104E+00
CGA:  12    -0.118286272378E+04   -0.70494E-01   -0.70218E-01  2944   0.116E+01 0.211E-01
[...]
CGA:  16    -0.118545111314E+04   -0.50036E-04   -0.50010E-04  2944   0.448E-03-0.103E-05
 gam= 0.459 trial= 0.134  step= 0.193 mean= 0.134
 gam= 0.759 g(H,U,f)=  0.109E-03 0.182E-03 0.490E-04 ort(H,U,f) = 0.845E-04-0.671E-04-0.188E-04
CGA:  17    -0.118545115633E+04   -0.43187E-04   -0.43229E-04  2944   0.340E-03-0.145E-05
 gam= 0.759 trial= 0.137  step= 0.103 mean= 0.137
 gam= 1.075 g(H,U,f)=  0.725E-04 0.221E-03 0.726E-04 ort(H,U,f) = 0.861E-04-0.471E-04-0.403E-04
CGA:  18    -0.118545117381E+04   -0.17485E-04   -0.17469E-04  2944   0.366E-03-0.131E-05
 gam= 1.075 trial= 0.136  step= 0.085 mean= 0.136
 gam= 0.254 g(H,U,f)=  0.483E-04 0.398E-04 0.485E-05 ort(H,U,f) = 0.534E-04-0.473E-04-0.809E-05
CGA:  19    -0.118545118942E+04   -0.15612E-04   -0.15562E-04  2944   0.930E-04-0.202E-05
 gam= 0.254 trial= 0.133  step= 0.209 mean= 0.133
 gam= 1.224 g(H,U,f)=  0.320E-04 0.683E-04 0.135E-04 ort(H,U,f) = 0.269E-04-0.236E-04-0.395E-05
CGA:  20    -0.118545119904E+04   -0.96141E-05   -0.96400E-05  2944   0.114E-03-0.715E-06
 gam= 1.224 trial= 0.137  step= 0.105 mean= 0.137
 final diagonalization
  26 F= -.11854512E+04 E0= -.11854323E+04  d E =-.149935E-01  mag=   118.0000
quench:  g(F)=  0.000E+00 g(S)=  0.000E+00 dE (1.order)= 0.000E+00
 bond charge predicted
 wavefunctions rotated
       N       E                     dE             d eps       ncg     rms          ort
 gam= 0.000 g(H,U,f)=  0.435E-01 0.251E+00 0.130E+00 ort(H,U,f) = 0.000E+00 0.000E+00 0.000E+00
SDA:   1    -0.118543612183E+04    0.15068E-01    0.00000E+00  2944   0.425E+00 0.000E+00
 gam= 0.000 trial= 0.135  step= 0.034 mean= 0.135
 gam= 0.068 g(H,U,f)=  0.224E-01 0.557E-02 0.822E-03 ort(H,U,f) = 0.219E-01-0.101E-01-0.547E-02
CGA:   2    -0.118544349633E+04   -0.73745E-02   -0.72310E-02  2944   0.288E-01 0.633E-02
 gam= 0.068 trial= 0.130  step= 0.222 mean= 0.130
 gam= 1.452 g(H,U,f)=  0.141E-01 0.234E-01 0.421E-02 ort(H,U,f) = 0.119E-01-0.104E-01-0.161E-02
CGA:   3    -0.118544673328E+04   -0.32369E-02   -0.32383E-02  2944   0.418E-01-0.246E-04
 gam= 1.452 trial= 0.135  step= 0.150 mean= 0.135
 gam= 0.875 g(H,U,f)=  0.721E-02 0.205E-01 0.879E-02 ort(H,U,f) = 0.544E-02-0.303E-02-0.226E-02
CGA:   4    -0.118544985639E+04   -0.31231E-02   -0.31213E-02  2944   0.365E-01 0.154E-03
 gam= 0.875 trial= 0.136  step= 0.048 mean= 0.136
 gam= 0.192 g(H,U,f)=  0.534E-02 0.149E-02 0.175E-03 ort(H,U,f) = 0.493E-02-0.385E-02-0.850E-03
CGA:   5    -0.118545073708E+04   -0.88068E-03   -0.87312E-03  2944   0.701E-02 0.233E-03
 gam= 0.192 trial= 0.131  step= 0.290 mean= 0.131
 gam= 0.721 g(H,U,f)=  0.177E-02 0.269E-02 0.589E-03 ort(H,U,f) = 0.107E-02-0.944E-03-0.125E-03
CGA:   6    -0.118545175823E+04   -0.10211E-02   -0.10212E-02  2944   0.505E-02-0.560E-06
 gam= 0.721 trial= 0.139  step= 0.093 mean= 0.139
 gam= 0.681 g(H,U,f)=  0.104E-02 0.176E-02 0.634E-03 ort(H,U,f) = 0.103E-02-0.654E-03-0.384E-03
CGA:   7    -0.118545199187E+04   -0.23364E-03   -0.23355E-03  2944   0.344E-02-0.409E-05
 gam= 0.681 trial= 0.137  step= 0.068 mean= 0.137
 gam= 0.471 g(H,U,f)=  0.641E-03 0.788E-03 0.192E-03 ort(H,U,f) = 0.827E-03-0.627E-03-0.204E-03
CGA:   8    -0.118545210893E+04   -0.11706E-03   -0.11701E-03  2944   0.162E-02-0.469E-05
 gam= 0.471 trial= 0.133  step= 0.148 mean= 0.133
 gam= 0.302 g(H,U,f)=  0.264E-03 0.198E-03 0.273E-04 ort(H,U,f) = 0.236E-03-0.204E-03-0.317E-04
CGA:   9    -0.118545222908E+04   -0.12015E-03   -0.12013E-03  2944   0.489E-03 0.477E-06
 gam= 0.302 trial= 0.134  step= 0.214 mean= 0.134
 gam= 0.916 g(H,U,f)=  0.109E-03 0.238E-03 0.101E-03 ort(H,U,f) = 0.741E-04-0.501E-04-0.257E-04
CGA:  10    -0.118545228128E+04   -0.52199E-04   -0.52268E-04  2944   0.448E-03-0.174E-05
 gam= 0.916 trial= 0.138  step= 0.056 mean= 0.138
 gam= 0.469 g(H,U,f)=  0.793E-04 0.103E-03 0.281E-04 ort(H,U,f) = 0.924E-04-0.611E-04-0.317E-04
CGA:  11    -0.118545229389E+04   -0.12614E-04   -0.12588E-04  2944   0.210E-03-0.383E-06
 gam= 0.469 trial= 0.134  step= 0.155 mean= 0.134
 gam= 0.431 g(H,U,f)=  0.483E-04 0.362E-04 0.620E-05 ort(H,U,f) = 0.344E-04-0.258E-04-0.811E-05
CGA:  12    -0.118545231023E+04   -0.16343E-04   -0.16337E-04  2944   0.907E-04 0.470E-06
 gam= 0.431 trial= 0.135  step= 0.282 mean= 0.135
 gam= 1.026 g(H,U,f)=  0.269E-04 0.510E-04 0.152E-04 ort(H,U,f) = 0.127E-04-0.991E-05-0.324E-05
CGA:  13    -0.118545232300E+04   -0.12766E-04   -0.12803E-04  2944   0.931E-04-0.489E-06
 gam= 1.026 trial= 0.142  step= 0.073 mean= 0.142
 gam= 0.784 g(H,U,f)=  0.226E-04 0.382E-04 0.122E-04 ort(H,U,f) = 0.208E-04-0.117E-04-0.933E-05
CGA:  14    -0.118545232637E+04   -0.33734E-05   -0.33690E-05  2944   0.730E-04-0.165E-06
 gam= 0.784 trial= 0.139  step= 0.117 mean= 0.139
 final diagonalization
  27 F= -.11854523E+04 E0= -.11854334E+04  d E =-.112734E-02  mag=   118.0000
quench:  g(F)=  0.000E+00 g(S)=  0.000E+00 dE (1.order)= 0.000E+00
 bond charge predicted
 wavefunctions rotated
       N       E                     dE             d eps       ncg     rms          ort
 gam= 0.000 g(H,U,f)=  0.164E+01 0.568E-01 0.979E-02 ort(H,U,f) = 0.000E+00 0.000E+00 0.000E+00
SDA:   1    -0.118487001953E+04    0.58230E+00    0.00000E+00  2944   0.170E+01 0.000E+00
 gam= 0.000 trial= 0.138  step= 0.364 mean= 0.138
 gam= 1.709 g(H,U,f)=  0.698E+00 0.139E+01 0.824E+00 ort(H,U,f) = 0.320E+00-0.167E+00-0.887E-01
CGA:   2    -0.118518645783E+04   -0.31644E+00   -0.30978E+00  2944   0.291E+01 0.643E-01
 gam= 1.709 trial= 0.149  step= 0.054 mean= 0.149
 gam= 0.354 g(H,U,f)=  0.577E+00 0.366E+00 0.884E-01 ort(H,U,f) = 0.603E+00-0.425E+00-0.148E+00
CGA:   3    -0.118526920228E+04   -0.82744E-01   -0.80959E-01  2944   0.103E+01 0.301E-01
 gam= 0.354 trial= 0.144  step= 0.166 mean= 0.144
 gam= 0.725 g(H,U,f)=  0.304E+00 0.407E+00 0.369E-01 ort(H,U,f) = 0.293E+00-0.289E+00-0.294E-01
CGA:   4    -0.118535513362E+04   -0.85931E-01   -0.86349E-01  2944   0.748E+00-0.247E-01
 gam= 0.725 trial= 0.145  step= 0.158 mean= 0.145
 gam= 0.475 g(H,U,f)=  0.119E+00 0.173E+00 0.635E-01 ort(H,U,f) = 0.829E-01-0.623E-01-0.111E-01
CGA:   5    -0.118541290235E+04   -0.57769E-01   -0.57666E-01  2944   0.355E+00 0.949E-02
 gam= 0.475 trial= 0.146  step= 0.058 mean= 0.146
 gam= 0.553 g(H,U,f)=  0.827E-01 0.813E-01 0.324E-01 ort(H,U,f) = 0.973E-01-0.643E-01-0.325E-01
CGA:   6    -0.118542335984E+04   -0.10457E-01   -0.10424E-01  2944   0.197E+00 0.457E-03
 gam= 0.553 trial= 0.142  step= 0.130 mean= 0.142
 gam= 0.496 g(H,U,f)=  0.387E-01 0.507E-01 0.815E-02 ort(H,U,f) = 0.494E-01-0.405E-01-0.807E-02
CGA:   7    -0.118543615958E+04   -0.12800E-01   -0.12811E-01  2944   0.975E-01 0.839E-03
 gam= 0.496 trial= 0.141  step= 0.166 mean= 0.141
 gam= 0.472 g(H,U,f)=  0.130E-01 0.242E-01 0.885E-02 ort(H,U,f) = 0.107E-01-0.805E-02-0.179E-02
CGA:   8    -0.118544430458E+04   -0.81450E-02   -0.81296E-02  2944   0.460E-01 0.808E-03
 gam= 0.472 trial= 0.142  step= 0.054 mean= 0.142
 gam= 0.471 g(H,U,f)=  0.903E-02 0.950E-02 0.317E-02 ort(H,U,f) = 0.107E-01-0.658E-02-0.403E-02
CGA:   9    -0.118544556542E+04   -0.12608E-02   -0.12577E-02  2944   0.217E-01 0.758E-04
 gam= 0.471 trial= 0.138  step= 0.142 mean= 0.138
 gam= 0.653 g(H,U,f)=  0.518E-02 0.764E-02 0.135E-02 ort(H,U,f) = 0.551E-02-0.443E-02-0.107E-02
CGA:  10    -0.118544711358E+04   -0.15482E-02   -0.15482E-02  2944   0.142E-01 0.472E-05
 gam= 0.653 trial= 0.138  step= 0.172 mean= 0.138
 gam= 0.513 g(H,U,f)=  0.258E-02 0.395E-02 0.735E-03 ort(H,U,f) = 0.182E-02-0.150E-02-0.312E-03
CGA:  11    -0.118544833506E+04   -0.12215E-02   -0.12213E-02  2944   0.727E-02 0.108E-04
 gam= 0.513 trial= 0.140  step= 0.090 mean= 0.140
 gam= 1.120 g(H,U,f)=  0.185E-02 0.443E-02 0.186E-02 ort(H,U,f) = 0.188E-02-0.103E-02-0.850E-03
CGA:  12    -0.118544866368E+04   -0.32862E-03   -0.32854E-03  2944   0.814E-02 0.176E-06
 gam= 1.120 trial= 0.137  step= 0.094 mean= 0.137
 gam= 0.279 g(H,U,f)=  0.124E-02 0.944E-03 0.880E-04 ort(H,U,f) = 0.114E-02-0.943E-03-0.198E-03
CGA:  13    -0.118544904493E+04   -0.38125E-03   -0.38221E-03  2944   0.227E-02 0.276E-05
 gam= 0.279 trial= 0.135  step= 0.313 mean= 0.135
 gam= 1.081 g(H,U,f)=  0.715E-03 0.142E-02 0.323E-03 ort(H,U,f) = 0.311E-03-0.242E-03-0.634E-04
CGA:  14    -0.118544940090E+04   -0.35596E-03   -0.35548E-03  2944   0.246E-02 0.576E-05
 gam= 1.081 trial= 0.144  step= 0.090 mean= 0.144
 gam= 0.904 g(H,U,f)=  0.551E-03 0.122E-02 0.449E-03 ort(H,U,f) = 0.489E-03-0.260E-03-0.230E-03
CGA:  15    -0.118544951201E+04   -0.11111E-03   -0.11108E-03  2944   0.222E-02-0.198E-05
 gam= 0.904 trial= 0.141  step= 0.079 mean= 0.141
 gam= 0.418 g(H,U,f)=  0.445E-03 0.395E-03 0.883E-04 ort(H,U,f) = 0.461E-03-0.336E-03-0.127E-03
CGA:  16    -0.118544960010E+04   -0.88092E-04   -0.88136E-04  2944   0.928E-03-0.131E-05
 gam= 0.418 trial= 0.138  step= 0.246 mean= 0.138
 gam= 1.022 g(H,U,f)=  0.325E-03 0.561E-03 0.626E-04 ort(H,U,f) = 0.234E-03-0.202E-03-0.292E-04
CGA:  17    -0.118544971413E+04   -0.11403E-03   -0.11390E-03  2944   0.948E-03 0.230E-05
 gam= 1.022 trial= 0.144  step= 0.166 mean= 0.144
 gam= 0.960 g(H,U,f)=  0.200E-03 0.506E-03 0.205E-03 ort(H,U,f) = 0.183E-03-0.145E-03-0.388E-04
CGA:  18    -0.118544979278E+04   -0.78650E-04   -0.78662E-04  2944   0.911E-03-0.814E-06
 gam= 0.960 trial= 0.145  step= 0.053 mean= 0.145
 gam= 0.344 g(H,U,f)=  0.164E-03 0.113E-03 0.358E-04 ort(H,U,f) = 0.228E-03-0.162E-03-0.654E-04
CGA:  19    -0.118544981704E+04   -0.24263E-04   -0.24312E-04  2944   0.314E-03 0.377E-06
 gam= 0.344 trial= 0.140  step= 0.251 mean= 0.140
 gam= 1.141 g(H,U,f)=  0.118E-03 0.207E-03 0.329E-04 ort(H,U,f) = 0.107E-03-0.887E-04-0.158E-04
CGA:  20    -0.118544985649E+04   -0.39454E-04   -0.39302E-04  2944   0.358E-03 0.273E-05
 gam= 1.141 trial= 0.146  step= 0.173 mean= 0.146
 gam= 0.575 g(H,U,f)=  0.669E-04 0.111E-03 0.280E-04 ort(H,U,f) = 0.767E-04-0.692E-04-0.627E-05
CGA:  21    -0.118544988766E+04   -0.31167E-04   -0.31152E-04  2944   0.206E-03 0.124E-05
 gam= 0.575 trial= 0.147  step= 0.076 mean= 0.147
 gam= 0.912 g(H,U,f)=  0.556E-04 0.949E-04 0.373E-04 ort(H,U,f) = 0.763E-04-0.491E-04-0.267E-04
CGA:  22    -0.118544989552E+04   -0.78629E-05   -0.78824E-05  2944   0.188E-03 0.450E-06
 gam= 0.912 trial= 0.143  step= 0.129 mean= 0.143
 gam= 0.527 g(H,U,f)=  0.421E-04 0.497E-04 0.722E-05 ort(H,U,f) = 0.569E-04-0.495E-04-0.715E-05
CGA:  23    -0.118544990767E+04   -0.12150E-04   -0.12152E-04  2944   0.990E-04 0.245E-06
 gam= 0.527 trial= 0.143  step= 0.269 mean= 0.143
 gam= 0.724 g(H,U,f)=  0.282E-04 0.378E-04 0.565E-05 ort(H,U,f) = 0.187E-04-0.165E-04-0.243E-05
CGA:  24    -0.118544992097E+04   -0.13300E-04   -0.13312E-04  2944   0.716E-04-0.172E-06
 gam= 0.724 trial= 0.149  step= 0.134 mean= 0.149
 gam= 1.490 g(H,U,f)=  0.208E-04 0.612E-04 0.247E-04 ort(H,U,f) = 0.224E-04-0.153E-04-0.692E-05
CGA:  25    -0.118544992576E+04   -0.47854E-05   -0.47859E-05  2944   0.107E-03 0.981E-07
 gam= 1.490 trial= 0.148  step= 0.076 mean= 0.148
 final diagonalization
  28 F= -.11854499E+04 E0= -.11854310E+04  d E =0.240061E-02  mag=   118.0000
quench:  g(F)=  0.000E+00 g(S)=  0.000E+00 dE (1.order)= 0.000E+00
 bond charge predicted
 wavefunctions rotated
       N       E                     dE             d eps       ncg     rms          ort
 gam= 0.000 g(H,U,f)=  0.137E+00 0.177E-01 0.442E-02 ort(H,U,f) = 0.000E+00 0.000E+00 0.000E+00
SDA:   1    -0.118540308236E+04    0.46839E-01    0.00000E+00  2944   0.159E+00 0.000E+00
 gam= 0.000 trial= 0.145  step= 0.227 mean= 0.145
 gam= 2.356 g(H,U,f)=  0.781E-01 0.216E+00 0.809E-01 ort(H,U,f) = 0.674E-01-0.514E-01-0.181E-01
CGA:   2    -0.118542102148E+04   -0.17939E-01   -0.18042E-01  2944   0.375E+00-0.213E-02
 gam= 2.356 trial= 0.149  step= 0.077 mean= 0.149
 gam= 0.496 g(H,U,f)=  0.533E-01 0.105E+00 0.276E-01 ort(H,U,f) = 0.703E-01-0.505E-01-0.207E-01
CGA:   3    -0.118543514259E+04   -0.14121E-01   -0.14184E-01  2944   0.186E+00-0.876E-03
 gam= 0.496 trial= 0.145  step= 0.086 mean= 0.145
 gam= 0.251 g(H,U,f)=  0.350E-01 0.104E-01 0.134E-02 ort(H,U,f) = 0.261E-01-0.229E-01-0.354E-02
CGA:   4    -0.118544311715E+04   -0.79746E-02   -0.80099E-02  2944   0.467E-01-0.286E-03
 gam= 0.251 trial= 0.142  step= 0.302 mean= 0.142
 gam= 0.348 g(H,U,f)=  0.104E-01 0.526E-02 0.587E-03 ort(H,U,f) = 0.398E-02-0.342E-02-0.326E-03
CGA:   5    -0.118545017211E+04   -0.70550E-02   -0.70367E-02  2944   0.163E-01 0.233E-03
 gam= 0.348 trial= 0.150  step= 0.200 mean= 0.150
 gam= 1.223 g(H,U,f)=  0.414E-02 0.114E-01 0.438E-02 ort(H,U,f) = 0.360E-02-0.257E-02-0.102E-02
CGA:   6    -0.118545180369E+04   -0.16316E-02   -0.16316E-02  2944   0.199E-01 0.259E-05
 gam= 1.223 trial= 0.153  step= 0.052 mean= 0.153
 gam= 0.264 g(H,U,f)=  0.267E-02 0.218E-02 0.390E-03 ort(H,U,f) = 0.371E-02-0.285E-02-0.901E-03
CGA:   7    -0.118545231964E+04   -0.51595E-03   -0.51725E-03  2944   0.524E-02-0.334E-04
 gam= 0.264 trial= 0.148  step= 0.197 mean= 0.148
 gam= 0.503 g(H,U,f)=  0.950E-03 0.147E-02 0.214E-03 ort(H,U,f) = 0.798E-03-0.691E-03-0.120E-03
CGA:   8    -0.118545283399E+04   -0.51434E-03   -0.51478E-03  2944   0.263E-02-0.135E-04
 gam= 0.503 trial= 0.150  step= 0.132 mean= 0.150
 gam= 0.435 g(H,U,f)=  0.476E-03 0.501E-03 0.168E-03 ort(H,U,f) = 0.342E-03-0.241E-03-0.101E-03
CGA:   9    -0.118545300801E+04   -0.17402E-03   -0.17403E-03  2944   0.114E-02-0.364E-06
 gam= 0.435 trial= 0.149  step= 0.086 mean= 0.149
 gam= 1.076 g(H,U,f)=  0.351E-03 0.675E-03 0.206E-03 ort(H,U,f) = 0.405E-03-0.269E-03-0.137E-03
CGA:  10    -0.118545305713E+04   -0.49126E-04   -0.49067E-04  2944   0.123E-02-0.101E-05
 gam= 1.076 trial= 0.146  step= 0.135 mean= 0.146
 gam= 0.457 g(H,U,f)=  0.187E-03 0.350E-03 0.268E-04 ort(H,U,f) = 0.193E-03-0.170E-03-0.236E-04
CGA:  11    -0.118545314024E+04   -0.83110E-04   -0.83108E-04  2944   0.564E-03-0.961E-06
 gam= 0.457 trial= 0.145  step= 0.160 mean= 0.145
 gam= 0.391 g(H,U,f)=  0.107E-03 0.942E-04 0.198E-04 ort(H,U,f) = 0.435E-04-0.352E-04-0.103E-04
CGA:  12    -0.118545318540E+04   -0.45162E-04   -0.45181E-04  2944   0.221E-03-0.200E-05
 gam= 0.391 trial= 0.146  step= 0.123 mean= 0.146
 gam= 1.693 g(H,U,f)=  0.821E-04 0.210E-03 0.809E-04 ort(H,U,f) = 0.758E-04-0.462E-04-0.289E-04
CGA:  13    -0.118545319890E+04   -0.13491E-04   -0.13499E-04  2944   0.373E-03 0.699E-06
 gam= 1.693 trial= 0.145  step= 0.108 mean= 0.145
 gam= 0.442 g(H,U,f)=  0.553E-04 0.877E-04 0.219E-04 ort(H,U,f) = 0.539E-04-0.326E-04-0.206E-04
CGA:  14    -0.118545321914E+04   -0.20248E-04   -0.20258E-04  2944   0.165E-03 0.709E-06
 gam= 0.442 trial= 0.143  step= 0.144 mean= 0.143
 gam= 0.522 g(H,U,f)=  0.369E-04 0.406E-04 0.854E-05 ort(H,U,f) = 0.218E-04-0.152E-04-0.640E-05
CGA:  15    -0.118545323106E+04   -0.11921E-04   -0.11921E-04  2944   0.860E-04 0.205E-06
 gam= 0.522 trial= 0.143  step= 0.157 mean= 0.143
 gam= 1.357 g(H,U,f)=  0.269E-04 0.645E-04 0.253E-04 ort(H,U,f) = 0.219E-04-0.131E-04-0.833E-05
CGA:  16    -0.118545323784E+04   -0.67739E-05   -0.67707E-05  2944   0.117E-03 0.436E-06
 gam= 1.357 trial= 0.144  step= 0.070 mean= 0.144
 final diagonalization
  29 F= -.11854532E+04 E0= -.11854343E+04  d E =-.331208E-02  mag=   118.0000
quench:  g(F)=  0.000E+00 g(S)=  0.000E+00 dE (1.order)= 0.000E+00
 bond charge predicted
 wavefunctions rotated
       N       E                     dE             d eps       ncg     rms          ort
 gam= 0.000 g(H,U,f)=  0.372E+01 0.258E+02 0.151E+02 ort(H,U,f) = 0.000E+00 0.000E+00 0.000E+00
SDA:   1    -0.118413673694E+04    0.13165E+01    0.00000E+00  2944   0.445E+02 0.000E+00
 gam= 0.000 trial= 0.140  step= 0.041 mean= 0.140
 gam= 0.026 g(H,U,f)=  0.248E+00 0.822E+00 0.104E+00 ort(H,U,f) =-0.612E-01-0.281E+01-0.276E+00
CGA:   2    -0.118537170707E+04   -0.12350E+01   -0.90344E+00  2944   0.117E+01-0.315E+01
 gam= 0.026 trial= 0.135  step= 0.082 mean= 0.135
 gam= 0.146 g(H,U,f)=  0.111E+00 0.507E-01 0.102E-01 ort(H,U,f) = 0.932E-01-0.988E-01-0.103E-01
CGA:   3    -0.118541357618E+04   -0.41869E-01   -0.44645E-01  2944   0.172E+00-0.158E-01
 gam= 0.146 trial= 0.133  step= 0.169 mean= 0.133
 gam= 1.737 g(H,U,f)=  0.606E-01 0.179E+00 0.583E-01 ort(H,U,f) = 0.703E-01-0.535E-01-0.208E-01
CGA:   4    -0.118542776327E+04   -0.14187E-01   -0.14289E-01  2944   0.298E+00-0.406E-02
 gam= 1.737 trial= 0.134  step= 0.068 mean= 0.134
 gam= 0.291 g(H,U,f)=  0.435E-01 0.381E-01 0.544E-02 ort(H,U,f) = 0.600E-01-0.532E-01-0.773E-02
CGA:   5    -0.118543765472E+04   -0.98915E-02   -0.99558E-02  2944   0.870E-01-0.919E-03
 gam= 0.291 trial= 0.131  step= 0.202 mean= 0.131
 gam= 0.650 g(H,U,f)=  0.226E-01 0.272E-01 0.683E-02 ort(H,U,f) = 0.182E-01-0.156E-01-0.352E-02
CGA:   6    -0.118544638730E+04   -0.87326E-02   -0.87710E-02  2944   0.566E-01-0.932E-03
 gam= 0.650 trial= 0.135  step= 0.143 mean= 0.135
 gam= 0.628 g(H,U,f)=  0.138E-01 0.155E-01 0.620E-02 ort(H,U,f) = 0.136E-01-0.978E-02-0.374E-02
CGA:   7    -0.118545037530E+04   -0.39880E-02   -0.39875E-02  2944   0.355E-01 0.655E-04
 gam= 0.628 trial= 0.135  step= 0.082 mean= 0.135
 gam= 0.842 g(H,U,f)=  0.703E-02 0.185E-01 0.435E-02 ort(H,U,f) = 0.112E-01-0.826E-02-0.291E-02
CGA:   8    -0.118545183186E+04   -0.14566E-02   -0.14547E-02  2944   0.299E-01 0.796E-05
 gam= 0.842 trial= 0.132  step= 0.101 mean= 0.132
 gam= 0.210 g(H,U,f)=  0.294E-02 0.277E-02 0.572E-03 ort(H,U,f) = 0.433E-02-0.357E-02-0.769E-03
CGA:   9    -0.118545334601E+04   -0.15141E-02   -0.15134E-02  2944   0.628E-02-0.487E-05
 gam= 0.210 trial= 0.131  step= 0.160 mean= 0.131
 gam= 0.544 g(H,U,f)=  0.129E-02 0.163E-02 0.495E-03 ort(H,U,f) = 0.121E-02-0.959E-03-0.267E-03
CGA:  10    -0.118545384698E+04   -0.50097E-03   -0.50127E-03  2944   0.342E-02-0.141E-04
 gam= 0.544 trial= 0.132  step= 0.106 mean= 0.132
 gam= 1.267 g(H,U,f)=  0.828E-03 0.256E-02 0.948E-03 ort(H,U,f) = 0.128E-02-0.819E-03-0.459E-03
CGA:  11    -0.118545402741E+04   -0.18044E-03   -0.18044E-03  2944   0.433E-02 0.135E-05
 gam= 1.267 trial= 0.131  step= 0.093 mean= 0.131
 gam= 0.236 g(H,U,f)=  0.386E-03 0.535E-03 0.100E-03 ort(H,U,f) = 0.708E-03-0.573E-03-0.135E-03
CGA:  12    -0.118545422991E+04   -0.20250E-03   -0.20243E-03  2944   0.102E-02-0.860E-06
 gam= 0.236 trial= 0.129  step= 0.156 mean= 0.129
 gam= 0.569 g(H,U,f)=  0.228E-03 0.271E-03 0.824E-04 ort(H,U,f) = 0.203E-03-0.148E-03-0.556E-04
CGA:  13    -0.118545430946E+04   -0.79549E-04   -0.79561E-04  2944   0.581E-03-0.127E-05
 gam= 0.569 trial= 0.130  step= 0.117 mean= 0.130
 gam= 1.402 g(H,U,f)=  0.153E-03 0.483E-03 0.179E-03 ort(H,U,f) = 0.187E-03-0.120E-03-0.676E-04
CGA:  14    -0.118545434354E+04   -0.34083E-04   -0.34077E-04  2944   0.815E-03-0.665E-06
 gam= 1.402 trial= 0.130  step= 0.091 mean= 0.130
 gam= 0.310 g(H,U,f)=  0.987E-04 0.134E-03 0.198E-04 ort(H,U,f) = 0.143E-03-0.111E-03-0.317E-04
CGA:  15    -0.118545438058E+04   -0.37038E-04   -0.37053E-04  2944   0.253E-03 0.562E-06
 gam= 0.310 trial= 0.128  step= 0.212 mean= 0.128
 gam= 0.694 g(H,U,f)=  0.603E-04 0.939E-04 0.212E-04 ort(H,U,f) = 0.370E-04-0.291E-04-0.803E-05
CGA:  16    -0.118545440742E+04   -0.26842E-04   -0.26849E-04  2944   0.175E-03-0.103E-06
 gam= 0.694 trial= 0.132  step= 0.096 mean= 0.132
 gam= 1.111 g(H,U,f)=  0.443E-04 0.109E-03 0.416E-04 ort(H,U,f) = 0.522E-04-0.308E-04-0.209E-04
CGA:  17    -0.118545441579E+04   -0.83651E-05   -0.83761E-05  2944   0.195E-03 0.568E-06
 gam= 1.111 trial= 0.130  step= 0.107 mean= 0.130
 gam= 0.456 g(H,U,f)=  0.370E-04 0.431E-04 0.883E-05 ort(H,U,f) = 0.416E-04-0.319E-04-0.926E-05
CGA:  18    -0.118545442627E+04   -0.10479E-04   -0.10484E-04  2944   0.889E-04 0.452E-06
 gam= 0.456 trial= 0.129  step= 0.217 mean= 0.129
 gam= 1.017 g(H,U,f)=  0.239E-04 0.521E-04 0.145E-04 ort(H,U,f) = 0.202E-04-0.149E-04-0.516E-05
CGA:  19    -0.118545443594E+04   -0.96724E-05   -0.96634E-05  2944   0.905E-04 0.213E-06
 gam= 1.017 trial= 0.133  step= 0.104 mean= 0.133
 final diagonalization
  30 F= -.11854544E+04 E0= -.11854355E+04  d E =-.119810E-02  mag=   118.0000
quench:  g(F)=  0.000E+00 g(S)=  0.000E+00 dE (1.order)= 0.000E+00
 reached required accuracy - stopping structural energy minimisation
