       N       E                     dE             d eps       ncg     rms          ort
DAV:   1     0.730097871419E+04    0.73010E+04   -0.28897E+05  1296   0.174E+03
DAV:   2     0.615549758855E+03   -0.66854E+04   -0.64438E+04  1296   0.525E+02
DAV:   3    -0.663450949463E+03   -0.12790E+04   -0.12412E+04  1296   0.206E+02
DAV:   4    -0.740212462664E+03   -0.76762E+02   -0.74999E+02  1296   0.586E+01
DAV:   5    -0.744297011427E+03   -0.40845E+01   -0.39087E+01  1296   0.118E+01
SDA:   6     0.291355990330E+02    0.77343E+03   -0.39087E+01  1296   0.410E+04 0.000E+00
CGA:   7    -0.452304296853E+03   -0.48144E+03   -0.49600E+03  1296   0.407E+03 0.137E+03
CGA:   8    -0.493842323765E+03   -0.41538E+02   -0.45114E+02  1296   0.346E+03-0.195E+02
CGA:   9    -0.522433040695E+03   -0.28591E+02   -0.32856E+02  1296   0.210E+03 0.521E+01
CGA:  10    -0.538830829025E+03   -0.16398E+02   -0.18007E+02  1296   0.129E+03-0.451E+02
CGA:  11    -0.547073181924E+03   -0.82424E+01   -0.82082E+01  1296   0.735E+02 0.391E+01
CGA:  12    -0.552010139634E+03   -0.49370E+01   -0.39213E+01  1296   0.422E+02 0.128E+02
CGA:  13    -0.554251410485E+03   -0.22413E+01   -0.29228E+01  1296   0.392E+02-0.741E+01
CGA:  14    -0.555778189262E+03   -0.15268E+01   -0.18741E+01  1296   0.333E+02-0.420E+01
CGA:  15    -0.557228505013E+03   -0.14503E+01   -0.14895E+01  1296   0.121E+02-0.113E+01
CGA:  16    -0.557832572111E+03   -0.60407E+00   -0.65999E+00  1296   0.879E+01-0.726E+00
CGA:  17    -0.558456949720E+03   -0.62438E+00   -0.64001E+00  1296   0.835E+01-0.121E+00
CGA:  18    -0.558980500996E+03   -0.52355E+00   -0.52046E+00  1296   0.453E+01 0.256E-01
CGA:  19    -0.559309308405E+03   -0.32881E+00   -0.33285E+00  1296   0.287E+01-0.290E-01
CGA:  20    -0.559466421721E+03   -0.15711E+00   -0.16651E+00  1296   0.157E+01-0.976E-01
CGA:  21    -0.559645332378E+03   -0.17891E+00   -0.17927E+00  1296   0.175E+01 0.766E-02
CGA:  22    -0.559765749101E+03   -0.12042E+00   -0.12159E+00  1296   0.858E+00-0.118E-01
CGA:  23    -0.559848350798E+03   -0.82602E-01   -0.82065E-01  1296   0.636E+00 0.277E-07
CGA:  24    -0.559905040016E+03   -0.56689E-01   -0.56301E-01  1296   0.596E+00-0.833E-02
CGA:  25    -0.559961508952E+03   -0.56469E-01   -0.56194E-01  1296   0.453E+00-0.128E-02
CGA:  26    -0.559993551452E+03   -0.32043E-01   -0.31069E-01  1296   0.280E+00 0.355E-02
CGA:  27    -0.560014960893E+03   -0.21409E-01   -0.21567E-01  1296   0.218E+00-0.747E-03
CGA:  28    -0.560033289623E+03   -0.18329E-01   -0.18628E-01  1296   0.193E+00 0.118E-02
CGA:  29    -0.560049904338E+03   -0.16615E-01   -0.16616E-01  1296   0.132E+00 0.619E-04
CGA:  30    -0.560059701196E+03   -0.97969E-02   -0.97941E-02  1296   0.783E-01-0.341E-05
CGA:  31    -0.560066482627E+03   -0.67814E-02   -0.67836E-02  1296   0.680E-01 0.112E-04
CGA:  32    -0.560072952143E+03   -0.64695E-02   -0.64729E-02  1296   0.629E-01 0.801E-04
CGA:  33    -0.560078357460E+03   -0.54053E-02   -0.54011E-02  1296   0.484E-01 0.187E-04
CGA:  34    -0.560082348544E+03   -0.39911E-02   -0.39874E-02  1296   0.357E-01 0.403E-04
CGA:  35    -0.560085359270E+03   -0.30107E-02   -0.30109E-02  1296   0.282E-01 0.521E-04
CGA:  36    -0.560087833652E+03   -0.24744E-02   -0.24757E-02  1296   0.211E-01 0.552E-04
SDA:  37    -0.560089619641E+03   -0.17860E-02   -0.17862E-02  1296   0.150E-01 0.186E-04
CGA:  38    -0.560091346047E+03   -0.17264E-02   -0.17272E-02  1296   0.824E-02-0.633E-04
CGA:  39    -0.560092688563E+03   -0.13425E-02   -0.13472E-02  1296   0.596E-02-0.772E-04
CGA:  40    -0.560093665684E+03   -0.97712E-03   -0.98135E-03  1296   0.371E-02-0.709E-04
CGA:  41    -0.560094186853E+03   -0.52117E-03   -0.52272E-03  1296   0.287E-02-0.437E-04
CGA:  42    -0.560094531277E+03   -0.34442E-03   -0.34476E-03  1296   0.229E-02-0.328E-04
CGA:  43    -0.560094994035E+03   -0.46276E-03   -0.46763E-03  1296   0.277E-02-0.536E-04
CGA:  44    -0.560095443525E+03   -0.44949E-03   -0.45655E-03  1296   0.219E-02-0.124E-03
CGA:  45    -0.560095786657E+03   -0.34313E-03   -0.34488E-03  1296   0.111E-02-0.334E-04
CGA:  46    -0.560096059561E+03   -0.27290E-03   -0.27669E-03  1296   0.164E-02-0.316E-04
CGA:  47    -0.560096289551E+03   -0.22999E-03   -0.23027E-03  1296   0.135E-02-0.549E-05
CGA:  48    -0.560096482931E+03   -0.19338E-03   -0.19320E-03  1296   0.122E-02 0.116E-04
CGA:  49    -0.560096686621E+03   -0.20369E-03   -0.20331E-03  1296   0.131E-02 0.101E-04
CGA:  50    -0.560096858121E+03   -0.17150E-03   -0.17149E-03  1296   0.994E-03 0.497E-05
CGA:  51    -0.560097009021E+03   -0.15090E-03   -0.15041E-03  1296   0.659E-03 0.213E-04
CGA:  52    -0.560097123910E+03   -0.11489E-03   -0.11406E-03  1296   0.590E-03 0.174E-04
CGA:  53    -0.560097212672E+03   -0.88763E-04   -0.88766E-04  1296   0.330E-03-0.183E-05
CGA:  54    -0.560097262693E+03   -0.50020E-04   -0.50121E-04  1296   0.227E-03-0.747E-05
CGA:  55    -0.560097302828E+03   -0.40135E-04   -0.40634E-04  1296   0.264E-03-0.113E-04
CGA:  56    -0.560097330922E+03   -0.28094E-04   -0.27849E-04  1296   0.134E-03-0.918E-05
CGA:  57    -0.560097351655E+03   -0.20733E-04   -0.20889E-04  1296   0.167E-03-0.644E-05
CGA:  58    -0.560097368703E+03   -0.17049E-04   -0.16954E-04  1296   0.807E-04-0.295E-05
CGA:  59    -0.560097383600E+03   -0.14896E-04   -0.14734E-04  1296   0.706E-04 0.338E-05
CGA:  60    -0.560097392594E+03   -0.89949E-05   -0.90825E-05  1296   0.529E-04 0.547E-05
   1 F= -.56009739E+03 E0= -.56008817E+03  d E =-.560097E+03  mag=     8.0000
       N       E                     dE             d eps       ncg     rms          ort
SDA:   1    -0.560093910687E+03    0.34729E-02    0.00000E+00  1296   0.230E-01 0.000E+00
CGA:   2    -0.560095605214E+03   -0.16945E-02   -0.17003E-02  1296   0.981E-02-0.112E-04
CGA:   3    -0.560096545323E+03   -0.94011E-03   -0.94012E-03  1296   0.393E-02 0.129E-04
CGA:   4    -0.560097169523E+03   -0.62420E-03   -0.62413E-03  1296   0.299E-02 0.264E-05
CGA:   5    -0.560097459078E+03   -0.28955E-03   -0.28952E-03  1296   0.522E-03-0.640E-06
CGA:   6    -0.560097519702E+03   -0.60625E-04   -0.60603E-04  1296   0.238E-03-0.140E-05
CGA:   7    -0.560097544091E+03   -0.24388E-04   -0.24400E-04  1296   0.111E-03 0.434E-06
CGA:   8    -0.560097553609E+03   -0.95187E-05   -0.95696E-05  1296   0.366E-04 0.111E-05
   2 F= -.56009755E+03 E0= -.56008831E+03  d E =-.161015E-03  mag=     8.0000
